# OOMMF: rectangular mesh v1.0
# Segment count: 1
# Begin: Segment
# Begin: Header
# Title: 
# meshunit: m
# valueunit: (none)
# valuemultiplier: 1
# xmin: 0
# ymin: 0
# zmin: 0
# xmax: 9.357999999999999e-08
# ymax: 9.357999999999999e-08
# zmax: 2.3395e-08
# ValueRangeMaxMag: 1
# ValueRangeMinMag: 0.9999999999999994
# meshtype: rectangular
# xbase: 1.16975e-09
# ybase: 1.16975e-09
# zbase: 1.16975e-09
# xstepsize: 2.3395e-09
# ystepsize: 2.3395e-09
# zstepsize: 2.3395e-09
# xnodes: 40
# ynodes: 40
# znodes: 10
# End: Header
# Begin: Data Text
-0.1750424342589466 0.1026433644180926 -0.9791958363624901
-0.2013405644691376 0.2641110023027214 -0.9432429992117091
-0.2537510506783447 0.385171266596281 -0.8872730693919726
-0.3247744001344335 0.4688774061974848 -0.821386368875718
-0.4064487343911571 0.5188050747317307 -0.7520908992564858
-0.4915131288821161 0.5389983876305048 -0.6840289337946373
-0.5739692902607573 0.5340382802332856 -0.6207756189502266
-0.6493661578915478 0.5089674804080724 -0.5650448627075796
-0.7148603562294804 0.4690214134582041 -0.5186459146750587
-0.769082617007368 0.4192524981202322 -0.4824305867552784
-0.8118695601851468 0.3641704624060524 -0.4563416390772793
-0.843936179276258 0.3074875632924471 -0.4395715228823004
-0.8665549079156737 0.2520010057316872 -0.4307877489872199
-0.8812826679033638 0.1995985997215034 -0.4283704684526513
-0.8897518856657048 0.1513503281844767 -0.4306212490260707
-0.8935234779417178 0.107645163291025 -0.4359223705970875
-0.8939907976850424 0.06834042444370195 -0.4428431325439244
-0.892321191373872 0.03290242050778916 -0.4502003133604438
-0.8894230662520003 0.0005276020744454396 -0.4570845992318496
-0.8859289296859929 -0.02975863774396139 -0.4628653746231771
-0.8821875727533834 -0.05902304889047587 -0.4671845097808421
-0.8782610388682617 -0.08835976904132306 -0.4699469106409843
-0.8739242514424368 -0.1188322614289038 -0.4713123129990012
-0.8686673063931796 -0.1514139225228625 -0.4716894474862226
-0.8617025978110729 -0.186919831781046 -0.4717304414732986
-0.8519812111586874 -0.2259237500943608 -0.4723203097219897
-0.8382253628038546 -0.2686574950507848 -0.4745538868299186
-0.8189858606483975 -0.3148945638445036 -0.4796911232440965
-0.7927350412037723 -0.3638265147637137 -0.4890822237646162
-0.7580053309661632 -0.4139487360225201 -0.5040578956550874
-0.7135798959816486 -0.4629801069042934 -0.5257881252574159
-0.6587330909171211 -0.5078449902394814 -0.5551253739646898
-0.5935039522150486 -0.5447402846956244 -0.592461881419258
-0.5189680929388173 -0.5692889638644292 -0.6376379804666684
-0.4374591478904951 -0.5767429507980745 -0.6899254036717676
-0.3526922024570615 -0.5621519835829883 -0.748059728684614
-0.2697703491254868 -0.5203901918426576 -0.8101962768161024
-0.1951124616534772 -0.4459836320634127 -0.8735157281005571
-0.136398431068317 -0.3329022659999167 -0.9330442375869548
-0.1026433644180916 -0.1750424342589478 -0.97919583636249
-0.3329022659999156 0.1363984310683179 -0.9330442375869551
-0.3549655808961984 0.293239825381285 -0.8876991839521863
-0.399626738285166 0.4104795257787284 -0.8196371324946359
-0.4600564717304481 0.4903924682489767 -0.7401778636946713
-0.5293996951688552 0.5366753197686815 -0.6570506555101412
-0.601558065359432 0.5536805251284265 -0.5758174798445483
-0.6715926177245445 0.546192123554246 -0.5006371140708575
-0.735887766635573 0.5192779154830246 -0.4345338207869588
-0.7921408635643782 0.4780606195679504 -0.3794349697771518
-0.8392217729654164 0.4274192003273223 -0.3361839421690671
-0.8769504626705362 0.3716952011849003 -0.3046318490211561
-0.9058423451689411 0.314474241984953 -0.28382317880473
-0.9268630400537022 0.2584770089347728 -0.2722398590113905
-0.9412190010319698 0.2055566221257933 -0.2680545974174184
-0.9501945170164678 0.1567757991518378 -0.2693542808869825
-0.955033823403699 0.1125300470702869 -0.2743125674504737
-0.9568608475031937 0.07268713470911428 -0.281307481171846
-0.9566273310671414 0.03672198390480783 -0.2889907357571387
-0.9550808223556359 0.003835409431067309 -0.2963206243294212
-0.9527457742207375 -0.02694724045012268 -0.3025712080430824
-0.9499128891884183 -0.05669603858856876 -0.3073289152716921
-0.9466336293675982 -0.08651001049624214 -0.3104847658650395
-0.9427184529307611 -0.1174572862449581 -0.3122270078193141
-0.9377389348148034 -0.1505142667251934 -0.3130353744300706
-0.9310355387965473 -0.1864967362094877 -0.3136746608845399
-0.9217344419877309 -0.2259776107793151 -0.3151820710002999
-0.9087783990016107 -0.2691891413004678 -0.3188401287698673
-0.8909779898568947 -0.3159120190668277 -0.3261254632801414
-0.8670903587423802 -0.3653598693929501 -0.3386243872097464
-0.8359321337477749 -0.4160743690917352 -0.3579100266167548
-0.7965307998560244 -0.465851957104465 -0.3853837554213476
-0.748313527499793 -0.5117247504478104 -0.4220955393509181
-0.6913238979721509 -0.5500117460796915 -0.4685705360636321
-0.6264459123017295 -0.5764381422523535 -0.5246756970902207
-0.5556041403300644 -0.5862909475956852 -0.5895481015281476
-0.4819048381331676 -0.5745473026174974 -0.6615611264568096
-0.409693823202699 -0.535903623833533 -0.7382128942193047
-0.3445417539965521 -0.4647001012762796 -0.8156867018817914
-0.2932398253812841 -0.3549655808961995 -0.8876991839521861
-0.2641110023027204 -0.2013405644691388 -0.9432429992117091
-0.4459836320634117 0.195112461653478 -0.8735157281005574
-0.4647001012762785 0.3445417539965528 -0.8156867018817916
-0.5025385528919828 0.455099228648518 -0.7350780196283626
-0.5531682719625162 0.5284686448220359 -0.6439920452412158
-0.6108711312483441 0.568682174814125 -0.5508512004670999
-0.6708331221538009 0.580565436966337 -0.4614398071487431
-0.7292727449943326 0.5691435111165267 -0.3797853698635357
-0.7834381934981308 0.5394241936907879 -0.3086197275441544
-0.8315288071994289 0.4962609080149599 -0.2495695373511395
-0.8725738149226832 0.4441914137765353 -0.2032459727484835
-0.9062864011993252 0.3872549011174431 -0.1693475732382797
-0.9329064436374082 0.3288299472250659 -0.146821092584694
-0.9530448339628047 0.2715326130228517 -0.1340730566586431
-0.9675409141294861 0.2171913210942837 -0.1291994950717609
-0.9773408966783466 0.1668919208840154 -0.1301993027001629
-0.9834005190481497 0.1210722770399953 -0.1351477815880814
-0.986611264674484 0.07964215271448288 -0.1423212560667509
-0.9877470755487704 0.04210783388463121 -0.1502752310608617
-0.9874275249905859 0.007687812534337757 -0.1578853395011778
-0.9860934908392091 -0.02458703246071425 -0.1643627243608418
-0.9839920468313826 -0.05578941230944056 -0.1692548174993931
-0.9811683007515907 -0.08702423601474296 -0.1724399836067203
-0.9774631016866447 -0.1193638486900002 -0.1741210971336735
-0.9725168163216715 -0.1537830387162613 -0.1748193895846588
-0.9657806291497356 -0.1910875896776266 -0.1753662151907694
-0.9565379005743964 -0.2318322604098563 -0.1768871046684359
-0.9439388323970967 -0.2762275648069321 -0.1807700559651332
-0.9270518253414738 -0.324039360029359 -0.1886091362654649
-0.9049343028092149 -0.3744903843754019 -0.2021159558509999
-0.8767243796440006 -0.4261772787665791 -0.2229961640947111
-0.8417527632668647 -0.4770183813966445 -0.2527958649628637
-0.7996720763658125 -0.5242445311249622 -0.2927323724263476
-0.7505987901881419 -0.5644356904684185 -0.3435313777423205
-0.6952612519814042 -0.5935908200693748 -0.4052921536652507
-0.6351456783362045 -0.6072011482256953 -0.4773853086179334
-0.5726310486471411 -0.6002878168920223 -0.558344176128206
-0.5111079403512254 -0.5673848126981027 -0.6456339114618025
-0.4550992286485172 -0.5025385528919837 -0.7350780196283625
-0.4104795257787273 -0.399626738285167 -0.8196371324946359
-0.38517126659628 -0.2537510506783459 -0.8872730693919726
-0.5203901918426566 0.2697703491254874 -0.8101962768161028
-0.535903623833532 0.4096938232026999 -0.738212894219305
-0.5673848126981017 0.5111079403512261 -0.6456339114618028
-0.6091830350192491 0.5758121812131068 -0.5452855782169009
-0.6566984211965639 0.6084034381130337 -0.445637117047245
-0.7062890118653006 0.6141731041941514 -0.3520614006148033
-0.7551674245450117 0.5982724032588624 -0.2679408375088027
-0.8012764368350904 0.5655000221199764 -0.1953606837497425
-0.8431770707055278 0.520294504018406 -0.1354476154263537
-0.8799608508662473 0.4667280484012731 -0.08850892485104753
-0.9111783629769298 0.4084433861901147 -0.05411091498241988
-0.9367705007376516 0.3485525771759115 -0.03117899760670888
-0.9569934260186438 0.2895415747076261 -0.01814549731824369
-0.9723360990738427 0.2332167357097821 -0.01313257867807181
-0.9834350347093205 0.1807084610137522 -0.0141415920008431
-0.9909929527936394 0.1325273339023079 -0.01922168780542179
-0.9957069884640553 0.0886564814087183 -0.0266011546378515
-0.9982097295474871 0.04866105311160233 -0.0347769715012948
-0.9990239357640587 0.01179893776211508 -0.04256713330934182
-0.9985301087375293 -0.02287718869165582 -0.04913508097259613
-0.9969453374723684 -0.05643020006595128 -0.05399654259877956
-0.9943119343260269 -0.08995994781654534 -0.05701741002254309
-0.9904950550970812 -0.1245312958475195 -0.05840806607624737
-0.9851894583931594 -0.161103065524506 -0.05871569934522831
-0.9779364649499314 -0.2004529471324995 -0.05881229894440883
-0.968152676350889 -0.2430959477401777 -0.059872827450481
-0.9551717836987128 -0.2891978306080535 -0.06333623289566888
-0.9382996626691642 -0.3384894733030774 -0.07084221550697944
-0.9168810299596684 -0.3901918681225315 -0.08413966336482653
-0.8903738103261299 -0.442962871368755 -0.1049684356084068
-0.8584260736838997 -0.4948740157030893 -0.1349236250681918
-0.8209511351227908 -0.5434177913505045 -0.1753178193577029
-0.7781997937627781 -0.5855337449492724 -0.2270579540849633
-0.7308340550168897 -0.6176291745485808 -0.2905439498148401
-0.6800120444357979 -0.6355636977952315 -0.3655713411457434
-0.6274975204498892 -0.6345769333234998 -0.4511751073840212
-0.575812181213106 -0.6091830350192502 -0.5452855782169008
-0.5284686448220351 -0.5531682719625173 -0.6439920452412156
-0.4903924682489757 -0.4600564717304489 -0.7401778636946713
-0.4688774061974838 -0.3247744001344344 -0.8213863688757184
-0.5621519835829875 0.352692202457062 -0.7480597286846146
-0.5745473026174964 0.4819048381331681 -0.6615611264568102
-0.6002878168920213 0.5726310486471418 -0.5583441761282063
-0.6345769333234988 0.6274975204498898 -0.4511751073840214
-0.6738278088973056 0.6518356598574651 -0.3479459103004929
-0.7153427516893646 0.6513103923298708 -0.2531393301101145
-0.7570778184272206 0.6310352115608542 -0.1691973363142226
-0.7974620597889447 0.5954535698469108 -0.09741308615244283
-0.8352816601931042 0.5484819032814245 -0.03836860588862955
-0.869624310993487 0.4936505911982216 0.007915272499948951
-0.8998632806110666 0.4341500579426911 0.04195001068231288
-0.9256547308339147 0.3727866263758871 0.06475685662597479
-0.9469263551986563 0.311894558247672 0.07779628760858093
-0.9638459182911843 0.2532549269927742 0.08284315148102224
-0.9767691686600021 0.1980554621264319 0.08182924341048926
-0.986174000882009 0.1469031060381628 0.07668322776664339
-0.9925904620462556 0.09988296270106327 0.06919225691403888
-0.9965352145754357 0.05664784079048984 0.06089817932307217
-0.9984562372976753 0.01652123255302168 0.05303009594840324
-0.9986905581524402 -0.02139956810941464 0.04646748908535417
-0.9974356587211616 -0.05814752731730737 0.0417249539048888
-0.9947341839931275 -0.09479874864431777 0.03894997369701063
-0.9904715450657479 -0.1323917946675658 0.03792797278751956
-0.9843864637952567 -0.1718494340941 0.03809280638397072
-0.9760949077568455 -0.2138995766805488 0.03854480700479271
-0.9651276488418881 -0.2589950281548815 0.03808144997214239
-0.9509804659818527 -0.3072357786707063 0.03524669666142248
-0.933173780014605 -0.3583014757248795 0.02840332351374332
-0.911315802759109 -0.4114036787881746 0.01582784638150901
-0.8851612740511443 -0.4652655728386047 -0.004179192663599261
-0.8546580833321972 -0.5181298585186682 -0.03318147534934558
-0.8199777251378181 -0.5677840838371683 -0.07251044351675046
-0.7815326030646526 -0.611579614342127 -0.1231956398097063
-0.7399919957713216 -0.6464108230816105 -0.1859163629090535
-0.6963164002964175 -0.6686217259100545 -0.2609376521686717
-0.6518356598574644 -0.6738278088973065 -0.3479459103004928
-0.6084034381130329 -0.6566984211965647 -0.4456371170472448
-0.568682174814124 -0.6108711312483447 -0.5508512004671
-0.5366753197686804 -0.529399695168856 -0.6570506555101414
-0.5188050747317295 -0.4064487343911579 -0.752090899256486
-0.5767429507980737 0.4374591478904955 -0.6899254036717679
-0.5862909475956843 0.555604140330065 -0.5895481015281481
-0.6072011482256943 0.6351456783362049 -0.477385308617934
-0.6355636977952307 0.6800120444357985 -0.3655713411457437
-0.6686217259100538 0.6963164002964182 -0.2609376521686721
-0.7043646376781848 0.6899640582884692 -0.1667934514859173
-0.7412532040272214 0.6658815919443731 -0.08453042664629869
-0.7780310062530783 0.6280551974729152 -0.01464316345874356
-0.8136171706612665 0.5798240247910753 0.04279252131194786
-0.8470706918169192 0.5241459573229387 0.08799010448241062
-0.8776059158932338 0.4637345235606599 0.1214831183628637
-0.9046313139737998 0.4010659347169487 0.144181489060337
-0.9277840786974724 0.3383022581406124 0.1573794314783354
-0.9469411068916171 0.2771888345894431 0.1626926244727299
-0.9621988445284821 0.2189737265074256 0.16193792232675
-0.9738254985936007 0.164375816875235 0.1569856334685559
-0.982195956077118 0.1136065356397565 0.1496150357607435
-0.9877216046059701 0.06643498643574725 0.141394569810474
-0.990785411987236 0.0222796959530528 0.1335959675346592
-0.9916891629209152 -0.01968905505070258 0.1271414379988847
-0.9906164368993221 -0.06044745035812473 0.1225772437693591
-0.9876126682283316 -0.1010220381165608 0.1200656710708388
-0.9825825648124751 -0.1423997047307513 0.1193893940814361
-0.9753047996065142 -0.1854419193082903 0.1199660053004771
-0.9654634914881188 -0.2308021524724738 0.1208743687373108
-0.9526948654039052 -0.2788483793717567 0.1208969592453813
-0.9366452871902924 -0.3295965123200072 0.1185822290678556
-0.9170338945463893 -0.3826634648523046 0.1123276854578165
-0.8937103413709245 -0.4372481800891194 0.1004781306325809
-0.8666973361595568 -0.4921437692918981 0.08142627242537005
-0.8362101913370471 -0.5457738160900246 0.05369783584643464
-0.8026519719198285 -0.5962329029259379 0.01600429447740112
-0.7665918186520384 -0.6412993508416451 -0.03274333803759576
-0.7287430216882557 -0.6783816999433239 -0.09344451574424566
-0.6899640582884684 -0.7043646376781855 -0.166793451485917
-0.6513103923298701 -0.7153427516893651 -0.2531393301101144
-0.6141731041941506 -0.7062890118653012 -0.3520614006148033
-0.5805654369663363 -0.6708331221538016 -0.4614398071487431
-0.5536805251284254 -0.6015580653594328 -0.5758174798445486
-0.5389983876305037 -0.4915131288821168 -0.6840289337946375
-0.5692889638644283 0.5189680929388174 -0.6376379804666691
-0.5764381422523527 0.6264459123017297 -0.5246756970902211
-0.5935908200693739 0.6952612519814046 -0.4052921536652511
-0.61762917454858 0.73083405501689 -0.2905439498148404
-0.6464108230816097 0.7399919957713221 -0.1859163629090539
-0.6783816999433231 0.7287430216882562 -0.09344451574424592
-0.71232239306914 0.7017227572569086 -0.01349000667216629
-0.7471757971596825 0.6624141293530981 0.05418347877507995
-0.7819477331329844 0.6135727199320823 0.1099375277297652
-0.8156757806163522 0.5575891981182683 0.1541664913583059
-0.8474540271168652 0.4966975183996201 0.1873852906155285
-0.8764914494960483 0.4330279739992682 0.2103556813932178
-0.9021763108068828 0.3685475658927114 0.2241664468501916
-0.9241216528913623 0.3049461991405437 0.2302324614103579
-0.9421766363073502 0.2435238493808547 0.2302158134866011
-0.956400957338513 0.1851172608960046 0.2258955699440245
-0.967010106443403 0.130082938046572 0.2190202804890215
-0.9743049198310023 0.07833397730126247 0.2111722311130629
-0.978599467215331 0.02941656375419567 0.2036608664981205
-0.9801585204788557 -0.01739143690059064 0.1974507854003947
-0.9791518750092018 -0.06297451115898756 0.1931212484690655
-0.9756293011863708 -0.1082752162904613 0.190850580831831
-0.969517502709586 -0.1541953283291939 0.190419570058383
-0.9606388653117504 -0.2015033837604397 0.1912311606031961
-0.9487502126609887 -0.250750005761409 0.1923472604077883
-0.933597534752891 -0.3021952723456578 0.1925452167031358
-0.9149795703670187 -0.3557556659273057 0.1903950944000513
-0.892809941411472 -0.410979348281456 0.1843539633503794
-0.867165759434224 -0.4670554676821901 0.1728662366485584
-0.8383119442956991 -0.5228551673749908 0.1544524457573732
-0.8066957856157793 -0.5769901788807531 0.1277663607719054
-0.7729147527536355 -0.627862458481878 0.09160523022665272
-0.7376697297064875 -0.6736689774572309 0.04487180279960094
-0.701722757256908 -0.7123223930691406 -0.01349000667216601
-0.6658815919443725 -0.7412532040272221 -0.08453042664629859
-0.6310352115608535 -0.7570778184272211 -0.1691973363142224
-0.5982724032588617 -0.7551674245450123 -0.2679408375088027
-0.5691435111165257 -0.7292727449943334 -0.3797853698635359
-0.546192123554245 -0.6715926177245449 -0.5006371140708578
-0.5340382802332845 -0.5739692902607578 -0.6207756189502268
-0.5447402846956236 0.5935039522150488 -0.5924618814192585
-0.5500117460796908 0.6913238979721512 -0.4685705360636325
-0.5644356904684177 0.7505987901881422 -0.343531377742321
-0.5855337449492719 0.7781997937627785 -0.2270579540849638
-0.6115796143421265 0.7815326030646529 -0.1231956398097067
-0.6412993508416446 0.7665918186520388 -0.03274333803759608
-0.6736689774572303 0.737669729706488 0.04487180279960074
-0.7077649308710364 0.69774920683629 0.1105207988952511
-0.7426664913822801 0.6490327428876811 0.1649332629812024
-0.7774159392778279 0.5933732481621102 0.2086447835971911
-0.8110354081797759 0.5325356910200701 0.2421307590299919
-0.8425870607115158 0.468292031547256 0.2659880040732506
-0.8712527103881976 0.4023860420371378 0.2810768361407709
-0.8964055453617893 0.3364210653531636 0.2885792179476463
-0.9176517923914542 0.2717268133128287 0.289965044182236
-0.934831632400952 0.2092516519357424 0.2868859794844177
-0.9479816091750847 0.1495081758128708 0.2810305571124328
-0.9572704945753299 0.09257912045598769 0.2739750110340332
-0.9629247830312624 0.0381744113954778 0.2670553810332315
-0.9651591149030259 -0.01427800450672236 0.2612738439012088
-0.9641230828261825 -0.06552523938515709 0.2572413733543954
-0.9598712960300407 -0.1163795748819453 0.2551526790137757
-0.9523596071693218 -0.1676131359742157 0.2547881772790562
-0.9414671830709931 -0.2198612031758961 0.2555398100852699
-0.9270410132137707 -0.2735382138673568 0.2564601438310459
-0.9089559243704676 -0.328772866575773 0.2563348001254947
-0.8871794371456632 -0.3853708780452837 0.2537753586550729
-0.8618280904558813 -0.4428129567967436 0.2473237307540343
-0.8332019537924997 -0.5002897811969037 0.2355517756806667
-0.8017882054469155 -0.5567656645823233 0.217135138447046
-0.7682325855730773 -0.6110507696014212 0.1908812495590241
-0.7332869931847334 -0.6618517319566252 0.1556999374826718
-0.6977492068362895 -0.707764930871037 0.1105207988952515
-0.6624141293530974 -0.7471757971596831 0.05418347877508
-0.6280551974729144 -0.7780310062530787 -0.01464316345874337
-0.59545356984691 -0.7974620597889451 -0.09741308615244273
-0.5655000221199757 -0.801276436835091 -0.1953606837497424
-0.539424193690787 -0.7834381934981315 -0.3086197275441545
-0.5192779154830237 -0.7358877666355734 -0.4345338207869591
-0.5089674804080714 -0.6493661578915483 -0.5650448627075798
-0.5078449902394806 0.6587330909171213 -0.5551253739646902
-0.5117247504478099 0.7483135274997931 -0.4220955393509186
-0.5242445311249616 0.7996720763658129 -0.2927323724263481
-0.5434177913505039 0.8209511351227912 -0.1753178193577035
-0.5677840838371676 0.8199777251378184 -0.07251044351675096
-0.5962329029259374 0.8026519719198288 0.01600429447740066
-0.6278624584818774 0.772914752753636 0.09160523022665226
-0.6618517319566246 0.733286993184734 0.1556999374826715
-0.6973593378017133 0.6854715864536639 0.2093290666521318
-0.7334667323281169 0.6308271202816617 0.2531475792597274
-0.7691756769225775 0.5706672288558674 0.2875894503292133
-0.8034563294233078 0.5063933413099513 0.3130873849048661
-0.8353285584861639 0.4394907691263077 0.3302636268652565
-0.8639502287940529 0.3714317453769121 0.3400418513844493
-0.88868576488998 0.3035367536902654 0.3436612437285965
-0.9091364423900663 0.2368435257991348 0.3426019168150808
-0.9251270716033994 0.1720203558101713 0.3384507328599841
-0.9366567206865074 0.109340871306167 0.3327442883879537
-0.9438295000299997 0.04871811241854298 0.3268216951114086
-0.9467836426671601 -0.01021731837922689 0.3217084711086117
-0.9456343329052205 -0.06801467131420834 0.3180404265449888
-0.9404404778312246 -0.1252929573233174 0.3160275027616339
-0.9312000495799734 -0.1826345741828175 0.3154537683644237
-0.9178736180999073 -0.2404896398196845 0.3157099211864959
-0.9004309611170523 -0.2990973704469924 0.3158557380411434
-0.8789109127977456 -0.3584325467416859 0.3147089398178932
-0.8534806325121105 -0.418185745962895 0.3109525555453502
-0.8244789898655546 -0.4777825941060289 0.3032460849534381
-0.7924314494741115 -0.5364390605957504 0.2903197067915075
-0.7580309863430991 -0.5932387944314294 0.2710290695206923
-0.7220893072078748 -0.6472082875829779 0.24435315610804
-0.6854715864536634 -0.6973593378017139 0.2093290666521321
-0.6490327428876804 -0.7426664913822806 0.1649332629812026
-0.6135727199320816 -0.7819477331329849 0.1099375277297654
-0.5798240247910745 -0.8136171706612669 0.04279252131194784
-0.5484819032814238 -0.8352816601931047 -0.03836860588862957
-0.5202945040184054 -0.8431770707055284 -0.1354476154263539
-0.4962609080149591 -0.8315288071994293 -0.2495695373511397
-0.4780606195679496 -0.7921408635643784 -0.3794349697771521
-0.4690214134582033 -0.7148603562294806 -0.518645914675059
-0.4629801069042931 0.7135798959816486 -0.5257881252574165
-0.4658519571044647 0.7965307998560243 -0.3853837554213481
-0.4770183813966442 0.8417527632668649 -0.2527958649628642
-0.4948740157030889 0.8584260736838998 -0.1349236250681922
-0.5181298585186678 0.8546580833321975 -0.03318147534934601
-0.5457738160900241 0.8362101913370474 0.05369783584643419
-0.5769901788807525 0.8066957856157797 0.1277663607719051
-0.6110507696014208 0.7682325855730778 0.1908812495590239
-0.6472082875829774 0.7220893072078753 0.2443531561080396
-0.6846196890210919 0.6691808703046178 0.28895128347702
-0.7223181612981944 0.610391281247617 0.3250830011484574
-0.7592389542007849 0.5467389029352695 0.3530336845702347
-0.7942897160816589 0.479408389267092 0.3731908938160864
-0.826443667526692 0.4096818870619314 0.3862015222890829
-0.8548280807068765 0.3388117102717098 0.3930338120540726
-0.8787836467781805 0.2678815409206374 0.3949414921089279
-0.8978813593762101 0.1976978425985884 0.3933505148294485
-0.9118979530611969 0.1287376036455862 0.389703416215961
-0.9207630212568757 0.06115819814553996 0.3852987587385933
-0.9244967694168417 -0.005142269399326728 0.3811551920192707
-0.9231563967294979 -0.07043466767636465 0.3779169548548059
-0.9168036582558517 -0.1350584868292942 0.3758061433027246
-0.9054994093465999 -0.1993251555632353 0.3746202103900034
-0.8893246879437061 -0.2634332419489242 0.3737706869861638
-0.8684221364189806 -0.327402646603129 0.3723580266017634
-0.843046147973771 -0.391036395248281 0.3692745996921752
-0.8136063930107015 -0.4539181118933262 0.3633221503670166
-0.7806895772182352 -0.5154476464936424 0.3533235171156567
-0.7450496753026291 -0.5749073779602354 0.3382048020036581
-0.7075662945874571 -0.6315410552588151 0.3170265513901913
-0.6691808703046173 -0.6846196890210924 0.2889512834770202
-0.6308271202816611 -0.7334667323281173 0.2531475792597278
-0.5933732481621096 -0.7774159392778284 0.2086447835971913
-0.5575891981182677 -0.8156757806163525 0.154166491358306
-0.5241459573229379 -0.8470706918169196 0.08799010448241075
-0.4936505911982209 -0.8696243109934875 0.007915272499948783
-0.4667280484012725 -0.8799608508662478 -0.08850892485104744
-0.4441914137765346 -0.8725738149226835 -0.2032459727484835
-0.4274192003273216 -0.8392217729654168 -0.3361839421690674
-0.4192524981202314 -0.7690826170073684 -0.4824305867552788
-0.4139487360225196 0.758005330966163 -0.5040578956550879
-0.4160743690917349 0.8359321337477749 -0.3579100266167554
-0.4261772787665789 0.8767243796440006 -0.2229961640947115
-0.4429628713687545 0.8903738103261299 -0.1049684356084072
-0.4652655728386043 0.8851612740511444 -0.004179192663599805
-0.4921437692918977 0.8666973361595571 0.08142627242536965
-0.5228551673749905 0.8383119442956994 0.1544524457573727
-0.556765664582323 0.801788205446916 0.2171351384470458
-0.5932387944314289 0.7580309863430994 0.2710290695206918
-0.631541055258815 0.7075662945874577 0.3170265513901908
-0.6707871483135996 0.650874460583896 0.3555376748207297
-0.7099372019246857 0.5885803198560731 0.3867329523087869
-0.7478448512476231 0.5215216456936965 0.410783704077168
-0.7833418346121878 0.4507184228403399 0.4280519518221217
-0.8153350218802488 0.3772739142841011 0.4391960788717114
-0.8428895011358176 0.3022475874424975 0.4451782617785846
-0.8652781359286962 0.2265416608507641 0.4471829864638608
-0.8819913458922383 0.1508329787945034 0.4464758428842198
-0.8927148856774889 0.07556257281213975 0.4442414101362428
-0.897292073849013 0.0009745479870961912 0.4414362745221078
-0.8956874895601155 -0.07281696333492114 0.4386816737637649
-0.8879636205232916 -0.1457543463209419 0.4362066931578675
-0.8742750476993976 -0.217769220933926 0.4338429524425245
-0.8548795563412278 -0.2887258005539458 0.4310665334311028
-0.8301611713656697 -0.3583787971210918 0.4270796966970192
-0.8006552925294943 -0.4263534747737849 0.4209202027615551
-0.7670627294896895 -0.4921556515632952 0.4115793771098536
-0.7302407313130432 -0.5552127781651196 0.3981045657783407
-0.6911659875592473 -0.6149364352559684 0.3796613731154805
-0.6508744605838956 -0.6707871483135999 0.35553767482073
-0.6103912812476163 -0.7223181612981946 0.3250830011484577
-0.570667228855867 -0.7691756769225778 0.2875894503292137
-0.5325356910200695 -0.8110354081797764 0.242130759029992
-0.4966975183996195 -0.8474540271168655 0.1873852906155286
-0.4637345235606593 -0.8776059158932341 0.1214831183628637
-0.4341500579426905 -0.899863280611067 0.04195001068231285
-0.4084433861901141 -0.91117836297693 -0.05411091498241997
-0.3872549011174424 -0.9062864011993255 -0.16934757323828
-0.3716952011848997 -0.8769504626705363 -0.3046318490211564
-0.3641704624060519 -0.8118695601851469 -0.4563416390772796
-0.3638265147637135 0.792735041203772 -0.4890822237646167
-0.3653598693929498 0.8670903587423802 -0.3386243872097469
-0.3744903843754019 0.9049343028092147 -0.2021159558510004
-0.3901918681225312 0.9168810299596682 -0.08413966336482716
-0.4114036787881743 0.9113158027591092 0.01582784638150847
-0.437248180089119 0.8937103413709249 0.1004781306325804
-0.46705546768219 0.8671657594342244 0.172866236648558
-0.5002897811969034 0.8332019537924998 0.2355517756806662
-0.5364390605957501 0.7924314494741118 0.2903197067915071
-0.5749073779602352 0.7450496753026294 0.3382048020036578
-0.6149364352559681 0.6911659875592477 0.3796613731154801
-0.6555721003927926 0.6310084168058911 0.4147934414943234
-0.6956816644040666 0.5650239822927673 0.4435931934171328
-0.7340159396931278 0.4938905886643845 0.4661466364838021
-0.7692993405664601 0.4184610334591716 0.4827720870973083
-0.8003247525161803 0.3396696328778998 0.4940696621029338
-0.8260318847053176 0.2584383304315448 0.5008801800969329
-0.8455578171142387 0.1756141485022846 0.5041742246117118
-0.8582616106649991 0.09195199389341947 0.5049077524436969
-0.8637335276322902 0.008133425582074121 0.5038831616874888
-0.86179873040419 -0.0752036666569037 0.5016446519151609
-0.8525179278288247 -0.1574466201378997 0.498421252092643
-0.8361820949806599 -0.2380045518701037 0.4941187482001317
-0.8133001611206206 -0.3163085861260029 0.4883561469502981
-0.7845817146876882 -0.3918079080593465 0.4805393804464783
-0.7509147509467876 -0.4639667372973125 0.4699594700526949
-0.7133339232140364 -0.5322733475021253 0.4558945026329584
-0.6729740046600979 -0.5962663792520531 0.4376898376994798
-0.6310084168058908 -0.6555721003927927 0.4147934414943237
-0.5885803198560726 -0.7099372019246859 0.3867329523087872
-0.5467389029352689 -0.7592389542007851 0.3530336845702348
-0.5063933413099507 -0.8034563294233081 0.3130873849048662
-0.4682920315472553 -0.8425870607115162 0.2659880040732507
-0.4330279739992675 -0.8764914494960485 0.210355681393218
-0.4010659347169482 -0.9046313139738 0.1441814890603371
-0.3727866263758865 -0.925654730833915 0.06475685662597476
-0.3485525771759109 -0.9367705007376519 -0.03117899760670905
-0.3288299472250653 -0.9329064436374084 -0.1468210925846943
-0.3144742419849524 -0.9058423451689412 -0.2838231788047302
-0.3074875632924465 -0.843936179276258 -0.4395715228823007
-0.3148945638445035 0.8189858606483973 -0.4796911232440969
-0.3159120190668276 0.8909779898568947 -0.3261254632801419
-0.324039360029359 0.9270518253414737 -0.1886091362654654
-0.3384894733030773 0.9382996626691642 -0.07084221550697982
-0.3583014757248795 0.9331737800146053 0.0284033235137427
-0.3826634648523044 0.9170338945463894 0.1123276854578161
-0.4109793482814559 0.8928099414114721 0.184353963350379
-0.4428129567967434 0.8618280904558815 0.2473237307540339
-0.4777825941060288 0.8244789898655548 0.3032460849534377
-0.5154476464936424 0.7806895772182354 0.3533235171156564
-0.5552127781651194 0.7302407313130435 0.3981045657783402
-0.5962663792520529 0.6729740046600982 0.4376898376994793
-0.6375629436664576 0.6089135146778438 0.4719510827469688
-0.6778509051311639 0.5383174648677944 0.5007319217217655
-0.7157381723808326 0.4616734861889772 0.524000439643958
-0.749780224088318 0.3796597855007852 0.5419299427412818
-0.7785742843258329 0.2931013876560969 0.5548996849346619
-0.8008494140042026 0.2029474353619074 0.5634292808943719
-0.8155520892792215 0.110276315345155 0.5680791528882152