# OOMMF: rectangular mesh v1.0
# Segment count: 1
# Begin: Segment
# Begin: Header
# Title: 
# meshunit: m
# valueunit: (none)
# valuemultiplier: 1
# xmin: 0
# ymin: 0
# zmin: 0
# xmax: 9.357999999999999e-08
# ymax: 9.357999999999999e-08
# zmax: 2.3395e-08
# ValueRangeMaxMag: 1
# ValueRangeMinMag: 0.9999999999999994
# meshtype: rectangular
# xbase: 1.16975e-09
# ybase: 1.16975e-09
# zbase: 1.16975e-09
# xstepsize: 2.3395e-09
# ystepsize: 2.3395e-09
# zstepsize: 2.3395e-09
# xnodes: 40
# ynodes: 40
# znodes: 10
# End: Header
# Begin: Data Text
-0.1750424342589952 0.1026433644179267 -0.9791958363624987
-0.2013405644691788 0.2641110023025565 -0.9432429992117466
-0.2537510506783747 0.3851712665961196 -0.8872730693920341
-0.32477440013445 0.4688774061973296 -0.8213863688758002
-0.4064487343911592 0.5188050747315849 -0.7520908992565851
-0.4915131288821033 0.5389983876303721 -0.6840289337947508
-0.573969290260731 0.5340382802331697 -0.6207756189503506
-0.6493661578915096 0.5089674804079762 -0.5650448627077099
-0.7148603562294329 0.4690214134581298 -0.5186459146751915
-0.7690826170073141 0.4192524981201808 -0.4824305867554091
-0.8118695601850895 0.3641704624060238 -0.456341639077404
-0.8439361792762003 0.30748756329244 -0.4395715228824157
-0.8665549079156188 0.2520010057316997 -0.4307877489873229
-0.8812826679033141 0.199598599721533 -0.4283704684527398
-0.8897518856656623 0.1513503281845202 -0.4306212490261432
-0.8935234779416842 0.1076451632910791 -0.4359223705971431
-0.8939907976850188 0.06834042444376319 -0.4428431325439627
-0.8923211913738589 0.03290242050785419 -0.4502003133604648
-0.889423066251998 0.0005276020745108057 -0.4570845992318541
-0.885928929686001 -0.02975863774389889 -0.4628653746231656
-0.882187572753401 -0.05902304889041946 -0.4671845097808159
-0.8782610388682877 -0.08835976904127557 -0.4699469106409448
-0.8739242514424691 -0.1188322614288681 -0.4713123129989504
-0.8686673063932161 -0.1514139225228409 -0.4716894474861622
-0.861702597811111 -0.1869198317810405 -0.4717304414732311
-0.8519812111587242 -0.2259237500943732 -0.4723203097219176
-0.8382253628038864 -0.2686574950508159 -0.4745538868298451
-0.8189858606484206 -0.3148945638445531 -0.4796911232440244
-0.7927350412037832 -0.3638265147637807 -0.4890822237645487
-0.7580053309661582 -0.4139487360226021 -0.5040578956550271
-0.7135798959816249 -0.4629801069043875 -0.5257881252573654
-0.6587330909170762 -0.5078449902395831 -0.55512537396465
-0.5935039522149813 -0.5447402846957289 -0.5924618814192294
-0.5189680929387274 -0.5692889638645314 -0.6376379804666502
-0.4374591478903846 -0.5767429507981702 -0.6899254036717576
-0.3526922024569329 -0.5621519835830742 -0.7480597286846102
-0.269770349125344 -0.5203901918427321 -0.8101962768161022
-0.1951124616533235 -0.4459836320634764 -0.8735157281005589
-0.1363984310681561 -0.3329022659999714 -0.9330442375869588
-0.1026433644179257 -0.1750424342589965 -0.9791958363624986
-0.3329022659999702 0.1363984310681569 -0.9330442375869591
-0.3549655808962488 0.2932398253811247 -0.887699183952219
-0.3996267382852091 0.4104795257785715 -0.8196371324946933
-0.4600564717304815 0.4903924682488262 -0.7401778636947502
-0.5293996951688776 0.5366753197685402 -0.6570506555102383
-0.6015580653594427 0.5536805251282977 -0.575817479844661
-0.6715926177245435 0.5461921235541332 -0.5006371140709819
-0.7358877666355612 0.5192779154829306 -0.434533820787091
-0.792140863564357 0.4780606195678775 -0.3794349697772876
-0.8392217729653884 0.4274192003272715 -0.3361839421692023
-0.8769504626705031 0.3716952011848717 -0.3046318490212861
-0.9058423451689055 0.3144742419849456 -0.2838231788048512
-0.926863040053667 0.2584770089347848 -0.2722398590114994
-0.9412190010319366 0.2055566221258223 -0.2680545974175125
-0.9501945170164388 0.1567757991518807 -0.2693542808870601
-0.9550338234036757 0.1125300470703406 -0.2743125674505333
-0.956860847503177 0.07268713470917523 -0.2813074811718872
-0.9566273310671322 0.03672198390487252 -0.2889907357571614
-0.9550808223556342 0.003835409431132519 -0.2963206243294257
-0.9527457742207434 -0.02694724045006057 -0.3025712080430697
-0.9499128891884309 -0.05669603858851267 -0.3073289152716634
-0.9466336293676165 -0.08651001049619517 -0.3104847658649965
-0.9427184529307837 -0.1174572862449229 -0.3122270078192587
-0.9377389348148287 -0.1505142667251727 -0.3130353744300051
-0.9310355387965727 -0.1864967362094834 -0.3136746608844672
-0.921734441987754 -0.2259776107793288 -0.315182071000223
-0.9087783990016283 -0.2691891413005002 -0.3188401287697896
-0.8909779898569041 -0.3159120190668784 -0.3261254632800665
-0.8670903587423782 -0.3653598693930182 -0.338624387209678
-0.8359321337477583 -0.4160743690918186 -0.3579100266166962
-0.796530799855991 -0.4658519571045603 -0.3853837554213014
-0.7483135274997406 -0.5117247504479132 -0.4220955393508863
-0.6913238979720785 -0.5500117460797969 -0.4685705360636152
-0.6264459123016369 -0.5764381422524566 -0.5246756970902179
-0.5556041403299528 -0.5862909475957814 -0.5895481015281573
-0.4819048381330392 -0.5745473026175832 -0.6615611264568286
-0.4096938232025565 -0.5359036238336068 -0.7382128942193302
-0.3445417539963989 -0.4647001012763411 -0.8156867018818209
-0.2932398253811236 -0.3549655808962499 -0.8876991839522189
-0.2641110023025555 -0.2013405644691799 -0.9432429992117467
-0.4459836320634752 0.1951124616533244 -0.8735157281005592
-0.46470010127634 0.3445417539963999 -0.8156867018818212
-0.5025385528920399 0.4550992286483688 -0.7350780196284159
-0.553168271962567 0.5284686448218928 -0.6439920452412896
-0.6108711312483863 0.5686821748139903 -0.5508512004671917
-0.6708331221538339 0.5805654369662141 -0.4614398071488499
-0.7292727449943556 0.5691435111164179 -0.3797853698636547
-0.7834381934981437 0.5394241936906964 -0.3086197275442818
-0.8315288071994323 0.4962609080148878 -0.2495695373512716
-0.8725738149226785 0.4441914137764841 -0.203245972748616
-0.906286401199314 0.3872549011174132 -0.1693475732384084
-0.9329064436373923 0.3288299472250569 -0.1468210925848151
-0.9530448339627864 0.2715326130228621 -0.1340730566587527
-0.9675409141294671 0.2171913210943111 -0.1291994950718564
-0.9773408966783288 0.1668919208840572 -0.130199302700242
-0.9834005190481349 0.1210722770400481 -0.1351477815881425
-0.9866112646744731 0.0796421527145432 -0.1423212560667931
-0.9877470755487642 0.04210783388469556 -0.1502752310608849
-0.9874275249905847 0.007687812534402545 -0.1578853395011822
-0.9860934908392128 -0.02458703246065238 -0.1643627243608284
-0.983992046831391 -0.05578941230938503 -0.1692548174993631
-0.9811683007516027 -0.08702423601469679 -0.1724399836066754
-0.9774631016866592 -0.1193638486899663 -0.1741210971336158
-0.9725168163216866 -0.1537830387162421 -0.174819389584591
-0.9657806291497499 -0.1910875896776242 -0.1753662151906943
-0.9565379005744071 -0.2318322604098721 -0.1768871046683572
-0.9439388323971016 -0.2762275648069667 -0.1807700559650545
-0.9270518253414703 -0.3240393600294122 -0.1886091362653903
-0.9049343028092006 -0.3744903843754723 -0.2021159558509331
-0.8767243796439732 -0.4261772787666643 -0.2229961640946557
-0.8417527632668221 -0.4770183813967412 -0.252795864962823
-0.7996720763657533 -0.5242445311250659 -0.2927323724263236
-0.7505987901880653 -0.5644356904685243 -0.3435313777423142
-0.6952612519813098 -0.5935908200694779 -0.4052921536652613
-0.6351456783360936 -0.6072011482257909 -0.4773853086179593
-0.5726310486470149 -0.6002878168921071 -0.5583441761282442
-0.5111079403510863 -0.5673848126981741 -0.6456339114618499
-0.4550992286483677 -0.5025385528920409 -0.7350780196284159
-0.4104795257785705 -0.3996267382852102 -0.8196371324946933
-0.3851712665961186 -0.2537510506783756 -0.8872730693920342
-0.5203901918427311 0.2697703491253447 -0.8101962768161025
-0.5359036238336058 0.4096938232025574 -0.7382128942193305
-0.5673848126981732 0.5111079403510871 -0.64563391146185
-0.6091830350193164 0.5758121812129732 -0.545285578216967
-0.6566984211966249 0.6084034381129074 -0.4456371170473273
-0.7062890118653538 0.6141731041940348 -0.3520614006148999
-0.7551674245450559 0.5982724032587581 -0.2679408375089111
-0.8012764368351248 0.565500022119887 -0.1953606837498599
-0.8431770707055525 0.5202945040183341 -0.135447615426477
-0.8799608508662626 0.4667280484012204 -0.08850892485117262
-0.9111783629769369 0.4084433861900822 -0.05411091498254306
-0.9367705007376523 0.3485525771758993 -0.03117899760682597
-0.9569934260186396 0.2895415747076333 -0.01814549731835092
-0.9723360990738353 0.2332167357098067 -0.01313257867816592
-0.9834350347093122 0.1807084610137915 -0.01414159200092158
-0.9909929527936314 0.1325273339023587 -0.01922168780548267
-0.9957069884640488 0.08865648140877719 -0.02660115463789378
-0.9982097295474833 0.04866105311166556 -0.034776971501318
-0.9990239357640578 0.01179893776217899 -0.0425671333093462
-0.9985301087375316 -0.02287718869159492 -0.04913508097258236
-0.996945337472373 -0.05643020006589677 -0.05399654259874895
-0.9943119343260336 -0.08995994781650062 -0.05701741002249742
-0.9904950550970886 -0.1245312958474874 -0.05840806607618892
-0.9851894583931664 -0.1611030655244892 -0.05871569934515986
-0.9779364649499358 -0.2004529471324998 -0.05881229894433367
-0.9681526763508892 -0.2430959477401964 -0.05987282745040275
-0.9551717836987066 -0.2891978306080912 -0.06333623289559157
-0.9382996626691494 -0.3384894733031334 -0.0708422155069071
-0.916881029959643 -0.3901918681226042 -0.08413966336476363
-0.8903738103260924 -0.4429628713688419 -0.1049684356083568
-0.8584260736838487 -0.494874015703187 -0.134923625068158
-0.8209511351227254 -0.5434177913506083 -0.1753178193576874
-0.7781997937626979 -0.5855337449493776 -0.2270579540849672
-0.7308340550167947 -0.6176291745486823 -0.2905439498148629
-0.6800120444356889 -0.6355636977953252 -0.3655713411457835
-0.6274975204497669 -0.6345769333235817 -0.4511751073840758
-0.5758121812129723 -0.6091830350193174 -0.545285578216967
-0.5284686448218918 -0.5531682719625678 -0.6439920452412897
-0.4903924682488252 -0.4600564717304825 -0.7401778636947502
-0.4688774061973285 -0.3247744001344508 -0.8213863688758003
-0.5621519835830733 0.3526922024569336 -0.7480597286846106
-0.5745473026175824 0.4819048381330397 -0.6615611264568291
-0.6002878168921062 0.5726310486470158 -0.5583441761282444
-0.6345769333235808 0.6274975204497678 -0.4511751073840761
-0.6738278088973829 0.6518356598573484 -0.3479459103005622
-0.7153427516894348 0.6513103923297614 -0.2531393301101971
-0.7570778184272826 0.6310352115607544 -0.1691973363143168
-0.7974620597889973 0.5954535698468233 -0.09741308615254675
-0.8352816601931468 0.5484819032813522 -0.03836860588874059
-0.8696243109935194 0.4936505911981666 0.007915272499834064
-0.8998632806110892 0.434150057942655 0.0419500106821982
-0.9256547308339291 0.3727866263758707 0.06475685662586418
-0.9469263551986639 0.3118945582476746 0.07779628760847833
-0.9638459182911869 0.2532549269927946 0.08284315148093112
-0.9767691686600015 0.1980554621264675 0.08182924341041263
-0.9861740008820066 0.1469031060382105 0.07668322776658341
-0.9925904620462528 0.09988296270111958 0.06919225691399705
-0.9965352145754337 0.05664784079055103 0.0608981793230491
-0.9984562372976745 0.01652123255308378 0.05303009594839899
-0.9986905581524407 -0.02139956810935542 0.046467489085368
-0.9974356587211632 -0.05814752731725475 0.04172495390491943
-0.9947341839931297 -0.09479874864427516 0.03894997369705626
-0.9904715450657495 -0.1323917946675363 0.03792797278757769
-0.9843864637952566 -0.1718494340940861 0.0380928063840384
-0.9760949077568418 -0.2138995766805524 0.03854480700486656
-0.9651276488418791 -0.2589950281549036 0.03808144997221849
-0.9509804659818368 -0.3072357786707473 0.03524669666149645
-0.9331737800145804 -0.3583014757249386 0.0284033235138109
-0.9113158027590741 -0.4114036787882497 0.01582784638156614
-0.8851612740510981 -0.4652655728386931 -0.004179192663556479
-0.854658083332139 -0.5181298585187659 -0.03318147534932011
-0.8199777251377474 -0.5677840838372711 -0.07251044351674449
-0.7815326030645696 -0.6115796143422302 -0.1231956398097207
-0.7399919957712267 -0.6464108230817092 -0.1859163629090882
-0.6963164002963113 -0.6686217259101443 -0.2609376521687251
-0.6518356598573476 -0.6738278088973837 -0.3479459103005622
-0.6084034381129065 -0.6566984211966258 -0.4456371170473273
-0.5686821748139894 -0.6108711312483873 -0.5508512004671916
-0.5366753197685392 -0.5293996951688784 -0.6570506555102386
-0.518805074731584 -0.40644873439116 -0.7520908992565853
-0.5767429507981692 0.4374591478903851 -0.689925403671758
-0.5862909475957806 0.5556041403299532 -0.5895481015281575
-0.6072011482257901 0.6351456783360943 -0.4773853086179595
-0.6355636977953244 0.6800120444356895 -0.3655713411457838
-0.6686217259101436 0.696316400296312 -0.2609376521687251
-0.7043646376782688 0.6899640582883675 -0.1667934514859829
-0.7412532040272977 0.6658815919442783 -0.08453042664637594
-0.7780310062531455 0.6280551974728298 -0.01464316345883121
-0.8136171706613236 0.5798240247910023 0.04279252131185173
-0.8470706918169656 0.5241459573228809 0.08799010448230883
-0.8776059158932694 0.4637345235606196 0.1214831183627596
-0.9046313139738258 0.4010659347169271 0.1441814890602347
-0.92778407869749 0.3383022581406093 0.1573794314782389
-0.9469411068916278 0.2771888345894579 0.162692624472643
-0.9621988445284877 0.2189737265074561 0.161937922326676
-0.9738254985936028 0.1643758168752783 0.1569856334684975
-0.9821959560771181 0.1136065356398091 0.1496150357607023
-0.9877216046059696 0.06643498643580523 0.1413945698104513
-0.9907854119872355 0.02227969595311217 0.1335959675346549
-0.9916891629209147 -0.01968905505064611 0.1271414379988983
-0.9906164368993213 -0.0604474503580749 0.1225772437693893
-0.9876126682283303 -0.1010220381165213 0.1200656710708837
-0.9825825648124721 -0.1423997047307251 0.1193893940814932
-0.9753047996065081 -0.1854419193082801 0.119966005300543
-0.9654634914881083 -0.2308021524724812 0.120874368737382
-0.9526948654038886 -0.2788483793717827 0.1208969592454534
-0.9366452871902682 -0.3295965123200518 0.1185822290679246
-0.9170338945463561 -0.3826634648523663 0.1123276854578777
-0.8937103413708815 -0.4372481800891962 0.1004781306326303
-0.8666973361595032 -0.4921437692919868 0.08142627242540394
-0.8362101913369829 -0.5457738160901213 0.05369783584645015
-0.8026519719197541 -0.5962329029260383 0.01600429447739642
-0.7665918186519542 -0.6412993508417444 -0.03274333803762153
-0.7287430216881623 -0.6783816999434176 -0.09344451574429205
-0.6899640582883667 -0.7043646376782695 -0.1667934514859827
-0.6513103923297607 -0.7153427516894355 -0.253139330110197
-0.6141731041940339 -0.7062890118653544 -0.3520614006149
-0.5805654369662132 -0.6708331221538347 -0.46143980714885
-0.5536805251282968 -0.6015580653594435 -0.5758174798446609
-0.5389983876303711 -0.4915131288821041 -0.6840289337947509
-0.5692889638645305 0.5189680929387278 -0.6376379804666508
-0.5764381422524557 0.6264459123016374 -0.5246756970902183
-0.5935908200694771 0.6952612519813104 -0.4052921536652618
-0.6176291745486816 0.7308340550167952 -0.2905439498148629
-0.6464108230817084 0.7399919957712273 -0.1859163629090884
-0.6783816999434167 0.7287430216881631 -0.09344451574429213
-0.7123223930692268 0.7017227572568192 -0.01349000667222446
-0.747175797159761 0.6624141293530154 0.0541834787750106
-0.7819477331330529 0.6135727199320092 0.109937527729686
-0.8156757806164097 0.557589198118208 0.1541664913582192
-0.8474540271169115 0.4966975183995753 0.1873852906154369
-0.8764914494960839 0.4330279739992406 0.2103556813931256
-0.9021763108069087 0.3685475658927021 0.2241664468501027
-0.9241216528913797 0.3049461991405521 0.2302324614102763
-0.942176636307361 0.243523849380879 0.2302158134865307
-0.9564009573385192 0.1851172608960424 0.2258955699439681
-0.9670101064434056 0.1300829380466196 0.2190202804889814
-0.974304919831003 0.07833397730131614 0.2111722311130405
-0.9785994672153302 0.0294165637542509 0.2036608664981161
-0.9801585204788541 -0.01739143690053783 0.1974507854004078
-0.9791518750091989 -0.06297451115894148 0.1931212484690949
-0.975629301186366 -0.1082752162904254 0.1908505808318744
-0.9695175027095787 -0.1541953283291718 0.1904195700584378
-0.9606388653117389 -0.2015033837604335 0.191231160603259
-0.948750212660972 -0.2507500057614206 0.1923472604078554
-0.9335975347528677 -0.3021952723456877 0.1925452167032027
-0.9149795703669875 -0.3557556659273534 0.1903950944001135
-0.8928099414114317 -0.4109793482815199 0.1843539633504323
-0.8671657594341743 -0.4670554676822679 0.1728662366485981
-0.8383119442956402 -0.5228551673750786 0.1544524457573964
-0.8066957856157113 -0.5769901788808471 0.1277663607719095
-0.7729147527535596 -0.627862458481974 0.09160523022663609
-0.7376697297064042 -0.6736689774573246 0.04487180279956332
-0.7017227572568185 -0.7123223930692276 -0.01349000667222416
-0.6658815919442777 -0.7412532040272984 -0.08453042664637589
-0.6310352115607536 -0.7570778184272832 -0.1691973363143168
-0.5982724032587573 -0.7551674245450565 -0.2679408375089111
-0.569143511116417 -0.7292727449943562 -0.3797853698636547
-0.5461921235541323 -0.6715926177245441 -0.5006371140709822
-0.5340382802331688 -0.5739692902607315 -0.6207756189503509
-0.544740284695728 0.5935039522149815 -0.5924618814192298
-0.5500117460797962 0.6913238979720788 -0.4685705360636155
-0.5644356904685236 0.7505987901880656 -0.3435313777423143
-0.5855337449493769 0.7781997937626983 -0.2270579540849675
-0.6115796143422294 0.7815326030645701 -0.123195639809721
-0.6412993508417438 0.7665918186519548 -0.03274333803762182
-0.6736689774573238 0.7376697297064049 0.04487180279956327
-0.7077649308711227 0.6977492068362107 0.1105207988952016
-0.742666491382357 0.6490327428876086 0.1649332629811417
-0.7774159392778944 0.5933732481620481 0.2086447835971207
-0.8110354081798311 0.5325356910200212 0.2421307590299147
-0.8425870607115598 0.4682920315472229 0.2659880040731699
-0.8712527103882308 0.4023860420371218 0.281076836140691
-0.8964055453618128 0.3364210653531648 0.2885792179475713
-0.9176517923914699 0.271726813312846 0.28996504418217
-0.9348316324009615 0.2092516519357735 0.286885979484364
-0.9479816091750896 0.1495081758129125 0.2810305571123941
-0.9572704945753315 0.09257912045603596 0.2739750110340112
-0.9629247830312617 0.0381744113955282 0.2670553810332267
-0.9651591149030233 -0.01427800450667437 0.261273843901221
-0.9641230828261779 -0.06552523938511547 0.2572413733544232
-0.9598712960300336 -0.1163795748819142 0.2551526790138171
-0.952359607169311 -0.167613135974198 0.2547881772791081
-0.9414671830709777 -0.2198612031758946 0.2555398100853287
-0.9270410132137492 -0.2735382138673724 0.2564601438311075
-0.9089559243704385 -0.3287728665758065 0.2563348001255545
-0.887179437145626 -0.3853708780453339 0.2537753586551265
-0.8618280904558354 -0.4428129567968087 0.2473237307540772
-0.8332019537924453 -0.5002897811969806 0.2355517756806952
-0.8017882054468533 -0.5567656645824087 0.2171351384470572
-0.7682325855730081 -0.6110507696015109 0.1908812495590159
-0.7332869931846585 -0.6618517319567151 0.1556999374826427
-0.69774920683621 -0.7077649308711231 0.1105207988952019
-0.6624141293530148 -0.7471757971597616 0.05418347877501066
-0.6280551974728291 -0.7780310062531461 -0.01464316345883121
-0.5954535698468226 -0.7974620597889978 -0.09741308615254687
-0.5655000221198863 -0.8012764368351253 -0.1953606837498602
-0.5394241936906954 -0.7834381934981443 -0.308619727544282
-0.5192779154829298 -0.7358877666355617 -0.4345338207870913
-0.5089674804079755 -0.6493661578915102 -0.5650448627077104
-0.5078449902395824 0.6587330909170763 -0.5551253739646504
-0.5117247504479125 0.7483135274997409 -0.4220955393508866
-0.5242445311250653 0.7996720763657537 -0.2927323724263243
-0.5434177913506077 0.8209511351227259 -0.1753178193576878
-0.5677840838372705 0.8199777251377478 -0.07251044351674488
-0.5962329029260377 0.8026519719197546 0.01600429447739605
-0.6278624584819734 0.7729147527535599 0.09160523022663594
-0.6618517319567145 0.733286993184659 0.1556999374826425
-0.6973593378017953 0.6854715864535932 0.2093290666520907
-0.7334667323281894 0.6308271202815986 0.2531475792596752
-0.7691756769226391 0.5706672288558156 0.287589450329152
-0.8034563294233581 0.5063933413099131 0.3130873849047987
-0.835328558486203 0.4394907691262853 0.3302636268651872
-0.8639502287940817 0.3714317453769063 0.3400418513843823
-0.8886857648900001 0.3035367536902755 0.343661243728536
-0.9091364423900792 0.2368435257991589 0.3426019168150306
-0.9251270716034065 0.1720203558102062 0.3384507328599472
-0.9366567206865101 0.109340871306209 0.3327442883879322
-0.9438295000299992 0.04871811241858742 0.3268216951114035
-0.9467836426671568 -0.01021731837918421 0.3217084711086227
-0.9456343329052143 -0.06801467131417206 0.3180404265450146
-0.9404404778312152 -0.1252929573232913 0.3160275027616724
-0.9312000495799595 -0.1826345741828049 0.3154537683644717
-0.9178736180998881 -0.2404896398196874 0.3157099211865493
-0.9004309611170266 -0.299097370447012 0.3158557380411983
-0.8789109127977124 -0.3584325467417222 0.3147089398179447
-0.8534806325120694 -0.4181857459629466 0.3109525555453938
-0.8244789898655054 -0.4777825941060936 0.3032460849534696
-0.7924314494740551 -0.5364390605958251 0.2903197067915236
-0.7580309863430363 -0.5932387944315101 0.2710290695206903
-0.7220893072078075 -0.6472082875830611 0.2443531561080185
-0.6854715864535926 -0.6973593378017957 0.2093290666520909
-0.649032742887608 -0.7426664913823574 0.1649332629811418
-0.6135727199320088 -0.7819477331330533 0.109937527729686
-0.5798240247910016 -0.8136171706613241 0.0427925213118516
-0.5484819032813514 -0.8352816601931472 -0.03836860588874071
-0.5202945040183333 -0.843177070705553 -0.1354476154264773
-0.496260908014887 -0.8315288071994328 -0.2495695373512719
-0.4780606195678765 -0.7921408635643574 -0.379434969777288
-0.469021413458129 -0.7148603562294332 -0.5186459146751917
-0.4629801069043871 0.7135798959816247 -0.5257881252573658
-0.4658519571045598 0.796530799855991 -0.3853837554213021
-0.4770183813967406 0.8417527632668225 -0.2527958649628234
-0.4948740157031865 0.8584260736838489 -0.1349236250681584
-0.5181298585187654 0.8546580833321394 -0.03318147534932033
-0.5457738160901208 0.8362101913369833 0.05369783584644987
-0.5769901788808466 0.8066957856157118 0.1277663607719092
-0.6110507696015106 0.7682325855730084 0.1908812495590156
-0.6472082875830607 0.7220893072078081 0.2443531561080183
-0.6846196890211671 0.6691808703045554 0.2889512834769865
-0.7223181612982599 0.610391281247563 0.3250830011484129
-0.7592389542008398 0.5467389029352273 0.353033684570182
-0.7942897160817027 0.4794083892670639 0.3731908938160291
-0.8264436675267253 0.4096818870619185 0.3862015222890252
-0.8548280807069002 0.3388117102717125 0.3930338120540189
-0.8787836467781962 0.2678815409206538 0.3949414921088821
-0.8978813593762192 0.1976978425986159 0.3933505148294141
-0.9118979530612008 0.1287376036456211 0.3897034162159403
-0.9207630212568754 0.0611581981455779 0.3852987587385879
-0.924496769416838 -0.00514226939929029 0.3811551920192803
-0.9231563967294908 -0.07043466767633415 0.3779169548548291
-0.9168036582558408 -0.1350584868292734 0.3758061433027594
-0.9054994093465838 -0.1993251555632276 0.3746202103900463
-0.8893246879436841 -0.2634332419489313 0.3737706869862109
-0.8684221364189519 -0.3274026466031518 0.37235802660181
-0.8430461479737351 -0.3910363952483191 0.3692745996922169
-0.8136063930106583 -0.4539181118933778 0.3633221503670488
-0.7806895772181851 -0.515447646493705 0.3533235171156759
-0.7450496753025734 -0.5749073779603058 0.3382048020036613
-0.7075662945873974 -0.6315410552588897 0.3170265513901762
-0.669180870304555 -0.6846196890211675 0.2889512834769866
-0.630827120281598 -0.7334667323281897 0.2531475792596752
-0.5933732481620474 -0.7774159392778948 0.2086447835971209
-0.5575891981182073 -0.8156757806164102 0.154166491358219
-0.5241459573228804 -0.8470706918169658 0.08799010448230864
-0.493650591198166 -0.8696243109935198 0.007915272499834022
-0.4667280484012198 -0.8799608508662631 -0.08850892485117298
-0.4441914137764832 -0.8725738149226786 -0.2032459727486162
-0.4274192003272708 -0.8392217729653886 -0.3361839421692024
-0.4192524981201801 -0.7690826170073143 -0.4824305867554095
-0.4139487360226018 0.7580053309661582 -0.5040578956550276
-0.4160743690918182 0.8359321337477583 -0.3579100266166966
-0.4261772787666639 0.8767243796439732 -0.2229961640946563
-0.4429628713688414 0.8903738103260926 -0.1049684356083571
-0.4652655728386926 0.8851612740510982 -0.0041791926635569
-0.4921437692919863 0.8666973361595035 0.08142627242540351
-0.5228551673750782 0.8383119442956403 0.1544524457573961
-0.5567656645824083 0.8017882054468537 0.2171351384470569
-0.59323879443151 0.7580309863430368 0.2710290695206901
-0.6315410552588894 0.7075662945873977 0.317026551390176
-0.670787148313666 0.6508744605838421 0.3555376748207029
-0.7099372019247427 0.5885803198560285 0.38673295230875
-0.7478448512476701 0.5215216456936641 0.4107837040771241
-0.7833418346122242 0.450718422840321 0.4280519518220746
-0.8153350218802754 0.3772739142840964 0.4391960788716657
-0.8428895011358356 0.3022475874425062 0.4451782617785444
-0.8652781359287071 0.2265416608507839 0.4471829864638299
-0.8819913458922433 0.1508329787945308 0.4464758428842006
-0.8927148856774891 0.0755625728121707 0.444241410136237
-0.897292073849009 0.0009745479871260585 0.4414362745221158
-0.8956874895601072 -0.07281696333489672 0.4386816737637855
-0.8879636205232794 -0.1457543463209267 0.4362066931578978
-0.8742750476993799 -0.2177692209339228 0.4338429524425615
-0.8548795563412043 -0.2887258005539564 0.4310665334311424
-0.8301611713656396 -0.3583787971211169 0.4270796966970567
-0.8006552925294577 -0.4263534747738235 0.420920202761586
-0.7670627294896466 -0.4921556515633453 0.411579377109874
-0.7302407313129951 -0.5552127781651783 0.3981045657783471
-0.6911659875591954 -0.6149364352560327 0.3796613731154708
-0.6508744605838419 -0.6707871483136663 0.3555376748207029
-0.6103912812475626 -0.7223181612982602 0.3250830011484132
-0.5706672288558149 -0.7691756769226393 0.2875894503291521
-0.5325356910200207 -0.8110354081798314 0.2421307590299147
-0.4966975183995749 -0.8474540271169119 0.187385290615437
-0.463734523560619 -0.8776059158932698 0.1214831183627597
-0.4341500579426547 -0.8998632806110896 0.04195001068219811
-0.4084433861900817 -0.9111783629769372 -0.05411091498254335
-0.3872549011174126 -0.9062864011993141 -0.1693475732384087
-0.3716952011848711 -0.8769504626705033 -0.3046318490212864
-0.3641704624060232 -0.8118695601850896 -0.4563416390774044
-0.3638265147637803 0.792735041203783 -0.4890822237645492
-0.365359869393018 0.8670903587423781 -0.3386243872096784
-0.3744903843754721 0.9049343028092006 -0.2021159558509335
-0.390191868122604 0.9168810299596432 -0.08413966336476399
-0.4114036787882493 0.9113158027590741 0.01582784638156573
-0.4372481800891958 0.8937103413708817 0.1004781306326299
-0.4670554676822675 0.8671657594341746 0.1728662366485978
-0.5002897811969803 0.8332019537924455 0.235551775680695
-0.5364390605958249 0.7924314494740553 0.2903197067915233
-0.5749073779603056 0.7450496753025736 0.338204802003661
-0.6149364352560325 0.6911659875591958 0.3796613731154706
-0.6555721003928492 0.6310084168058461 0.4147934414943025
-0.6956816644041142 0.565023982292732 0.4435931934171031
-0.7340159396931658 0.4938905886643611 0.466146636483767
-0.7692993405664889 0.4184610334591608 0.4827720870972719
-0.8003247525162003 0.3396696328779016 0.4940696621029002
-0.8260318847053302 0.2584383304315573 0.5008801800969059
-0.8455578171142447 0.1756141485023047 0.5041742246116946
-0.8582616106649998 0.09195199389344333 0.5049077524436915
-0.8637335276322864 0.008133425582097458 0.5038831616874953
-0.8617987304041816 -0.07520366665688522 0.501644651915178
-0.8525179278288116 -0.1574466201378897 0.4984212520926686
-0.8361820949806417 -0.2380045518701046 0.4941187482001623
-0.8133001611205966 -0.3163085861260164 0.4883561469503293
-0.7845817146876581 -0.3918079080593725 0.4805393804465058
-0.7509147509467521 -0.4639667372973499 0.4699594700527149
-0.7133339232139962 -0.532273347502172 0.455894502632967
-0.6729740046600543 -0.5962663792521062 0.4376898376994743
-0.6310084168058459 -0.6555721003928492 0.4147934414943028
-0.5885803198560281 -0.709937201924743 0.3867329523087502
-0.5467389029352269 -0.75923895420084 0.353033684570182
-0.5063933413099126 -0.8034563294233584 0.3130873849047988
-0.4682920315472223 -0.8425870607115601 0.2659880040731699
-0.4330279739992401 -0.876491449496084 0.2103556813931256
-0.4010659347169265 -0.9046313139738259 0.1441814890602347
-0.3727866263758701 -0.9256547308339292 0.06475685662586414
-0.3485525771758988 -0.9367705007376524 -0.0311789976068261
-0.3288299472250563 -0.9329064436373924 -0.1468210925848153
-0.314474241984945 -0.9058423451689058 -0.2838231788048514
-0.3074875632924395 -0.8439361792762005 -0.439571522882416
-0.3148945638445529 0.8189858606484206 -0.4796911232440249
-0.3159120190668783 0.8909779898569041 -0.3261254632800669
-0.3240393600294119 0.9270518253414703 -0.1886091362653907
-0.3384894733031332 0.9382996626691497 -0.07084221550690743
-0.3583014757249384 0.9331737800145805 0.02840332351381045
-0.3826634648523662 0.9170338945463561 0.1123276854578774
-0.4109793482815197 0.8928099414114318 0.184353963350432
-0.4428129567968085 0.8618280904558357 0.247323730754077
-0.4777825941060934 0.8244789898655057 0.3032460849534693
-0.5154476464937049 0.7806895772181852 0.3533235171156756
-0.5552127781651782 0.7302407313129952 0.3981045657783468
-0.596266379252106 0.6729740046600546 0.4376898376994739
-0.6375629436665036 0.6089135146778079 0.4719510827469534
-0.6778509051312017 0.5383174648677679 0.5007319217217427
-0.7157381723808618 0.461673486188962 0.5240004396439315
-0.749780224088339 0.3796597855007809 0.5419299427412558
-0.7785742843258462 0.2931013876561027 0.55489968493464
-0.8008494140042096 0.2029474353619206 0.5634292808943575
-0.8155520892792227 0.1102763153451722 0.5680791528882099