# OOMMF: rectangular mesh v1.0
# Segment count: 1
# Begin: Segment
# Begin: Header
# Title: 
# meshunit: m
# valueunit: (none)
# valuemultiplier: 1
# xmin: 0
# ymin: 0
# zmin: 0
# xmax: 9.357999999999999e-08
# ymax: 9.357999999999999e-08
# zmax: 2.3395e-08
# ValueRangeMaxMag: 1
# ValueRangeMinMag: 0.9999999999999994
# meshtype: rectangular
# xbase: 1.16975e-09
# ybase: 1.16975e-09
# zbase: 1.16975e-09
# xstepsize: 2.3395e-09
# ystepsize: 2.3395e-09
# zstepsize: 2.3395e-09
# xnodes: 40
# ynodes: 40
# znodes: 10
# End: Header
# Begin: Data Text
-0.7031198901868183 0.7106160881879715 -0.0254400320774401
-0.7138595482572184 0.7000117895769654 -0.01969872623430277
-0.7306268104233029 0.682659130813537 -0.01268759266278498
-0.7511428020181687 0.6601135790597349 -0.005878240998856952
-0.7737780922103046 0.6334567341428791 0.0001731600955131648
-0.7973273283844748 0.6035239332695794 0.005290877251611543
-0.8209122886370729 0.5709756809529646 0.009475554070389584
-0.8439095070517514 0.5363327092008378 0.01280503607801159
-0.8658893492137191 0.4999990450504522 0.01538147804592896
-0.886564669926049 0.4622809589244211 0.01730320937955986
-0.9057486918521401 0.4234045903589512 0.01865100724103657
-0.9233216293011066 0.3835330272607291 0.01948296345451448
-0.9392052867007489 0.3427827643744225 0.01983446195873409
-0.9533446741002893 0.3012391221349578 0.01972114753183787
-0.9656956111437824 0.258970093990454 0.01914358995098584
-0.9762172883112822 0.2160380882540049 0.01809282801889465
-0.9848687734723292 0.1725091017603913 0.01655623293301973
-0.991608471619516 0.128458998223007 0.01452324991000646
-0.9963955678076073 0.08397676626488426 0.01199062888459873
-0.9991925280685156 0.03916488776389497 0.008966795329988685
-0.9999678252500387 -0.005862764092249542 0.005475076429275241
-0.9986982176151203 -0.05098480384137435 0.001555605874851414
-0.9953701417150874 -0.0960770813533902 -0.0027341215591959
-0.9899800730547857 -0.1410172824551628 -0.007319904603301028
-0.9825340267742964 -0.1856883842056176 -0.01211239868038902
-0.973046677810252 -0.2299801099766193 -0.0170091686326207
-0.9615408432198241 -0.2737877620374617 -0.02189676182972045
-0.9480482697336227 -0.3170080909677732 -0.02665236417377997
-0.9326128070046404 -0.3595321382925553 -0.03114472259802341
-0.9152971321925816 -0.4012352288230183 -0.03523422982520445
-0.8961942393188258 -0.4419644643546348 -0.03877238269015257
-0.8754449211676657 -0.4815241679106096 -0.04160127065047444
-0.8532624365525717 -0.5196597252740688 -0.04355438320590997
-0.8299654282389839 -0.5560401178755753 -0.04446094062203267
-0.8060198810688821 -0.59023900346403 -0.04415733360941702
-0.7820904619128934 -0.6217131824490021 -0.04251150613669368
-0.759101156026015 -0.6497749788636175 -0.03947039096275106
-0.7383058719224316 -0.673549442015933 -0.03515094088190224
-0.7213787558525151 -0.6918893728123022 -0.03002975847515392
-0.7106160881877858 -0.7031198901870116 -0.02544003207728663
-0.6918893728128879 0.7213787558519725 -0.03002975847469257
-0.7027741417314798 0.7109968356978116 -0.02433115988358632
-0.7199932396136756 0.6937667696708207 -0.01724541130614744
-0.7410769634496531 0.6713412156975246 -0.01029108109048252
-0.7643416349959099 0.6447988402711587 -0.00403987583317578
-0.7885673074937468 0.6149470203375967 0.001328054958705434
-0.8128684784258996 0.5824183005469434 0.005810333000110202
-0.836613925814201 0.5477109188762532 0.00948095340567175
-0.8593645439616414 0.5112121827133894 0.01243723550519698
-0.8808222857233295 0.4732165383799637 0.01477189144330463
-0.9007885024509454 0.4339422293494531 0.01655945166390066
-0.919130882013361 0.3935476548587018 0.01785119280486337
-0.9357582024055218 0.3521474488368497 0.01867514145821683
-0.9506020279116394 0.3098278506814208 0.01903910377117103
-0.9636044247508673 0.2666607584268436 0.01893548298222318
-0.9747107530446181 0.2227158094260668 0.01834710143006045
-0.9838665748275958 0.1780698759544544 0.01725346963887403
-0.991017687900144 0.1328134992314086 0.01563702948008273
-0.9961122669020438 0.08705401040657657 0.01348892135800648
-0.9991040941351383 0.04091539914881269 0.01081384274424669
-0.999955931702871 -0.005464649932089675 0.007633626488275915
-0.9986422507785532 -0.0519397779747228 0.003989288643529057
-0.9951507998079683 -0.09836097913681521 -5.852185376385756e-05
-0.9894828383189617 -0.144582443938828 -0.004430527838352131
-0.9816522410144696 -0.1904660597386006 -0.009030935661432428
-0.9716840332683728 -0.2358835996856443 -0.0137501596590687
-0.9596132078408234 -0.2807159401184987 -0.01846760138273675
-0.945484870502511 -0.3248490023399688 -0.02305396559329202
-0.9293568704483105 -0.3681664579618337 -0.02737273428722443
-0.9113061117372098 -0.4105395122900141 -0.03128065790684365
-0.8914397381415577 -0.4518142676532447 -0.03462745741565158
-0.8699123544814378 -0.4917972463839955 -0.03725538846503106
-0.8469503855969142 -0.5302396140250042 -0.03899994943397362
-0.8228845577057132 -0.5668204274680463 -0.03969392515755243
-0.7981912985455174 -0.6011286953778232 -0.03917834248122594
-0.7735437060611864 -0.63264277983759 -0.03732623651657164
-0.7498733191605894 -0.6607025763172532 -0.03408974712174611
-0.7284483808519038 -0.6844612620465994 -0.02959285710801654
-0.7109968356961496 -0.7027741417332091 -0.02433115988220494
-0.7000117895775284 -0.7138595482566534 -0.01969872623476377
-0.6735494420149326 0.7383058719233077 -0.03515094088266787
-0.6844612620495415 0.7284483808492326 -0.02959285710572366
-0.7020823037201349 0.7117391856796291 -0.02253376069647973
-0.7238612189634661 0.689772067578003 -0.015473540961637
-0.7480193821445981 0.6636158504908973 -0.009000384061611518
-0.7732812861912817 0.6340544971786939 -0.003308630204495419
-0.7987282105269768 0.601689888585332 0.001588610255334342
-0.8237043536674646 0.5669903063447087 0.005755889192555253
-0.8477484057254492 0.5303173603926252 0.009281048225128135
-0.8705401425144228 0.4919449976559888 0.01224661390822742
-0.891857990652121 0.4520760655192859 0.0147158246307421
-0.9115457037344001 0.4108584034521932 0.01672729255054521
-0.9294869972916936 0.3684008949613559 0.01829487516608568
-0.9455872280870172 0.3247891871444141 0.01941077002031268
-0.9597612837822627 0.2801004268425706 0.0200506617155786
-0.9719268557370498 0.2344161841812206 0.02018018064853524
-0.9820022078640337 0.1878326994152237 0.01976210465899063
-0.9899074446260995 0.1404676919203371 0.0187637576300282
-0.995568152673126 0.09246323603429075 0.01716401366481035
-0.998920203673485 0.04398461510900092 0.01495928897494337
-0.9999145215176198 -0.004784419705251656 0.01216794913997287
-0.9985207874786858 -0.05364904542146128 0.008832717492973145
-0.994729390519785 -0.1024120595661659 0.005020925368147172
-0.9885513902358892 -0.1508823115149411 0.0008227603528730937
-0.9800167677132658 -0.1988813657810143 -0.003652033121532322
-0.9691717022778571 -0.2462471945167563 -0.008278326912290452
-0.9560759562730271 -0.2928341545973547 -0.01291989697593075
-0.9408016400847883 -0.3385090253138163 -0.01743312349700765
-0.9234346799554739 -0.3831433420202383 -0.02166959439153346
-0.904080262475446 -0.426602603174682 -0.02547740110200959
-0.8828734399437435 -0.4687331051326574 -0.02870130998051818
-0.8599959926121812 -0.5093471754032581 -0.03118248867090252
-0.8357005895801889 -0.5482074098424711 -0.03275912650137235
-0.8103432894329979 -0.5850101243390587 -0.03327022229722578
-0.7844255588595423 -0.6193674040445498 -0.03256626191335888
-0.7586475566746859 -0.6507853878330817 -0.03053299419438227
-0.7339764031151302 -0.6786325130456718 -0.02713948981634704
-0.7117391856750674 -0.7020823037248812 -0.02253376069268431
-0.6937667696736532 -0.7199932396108915 -0.01724541130843763
-0.6826591308125728 -0.7306268104242171 -0.01268759266202061
-0.6497749788650449 0.7591011560248487 -0.03947039096168659
-0.660702576313043 0.7498733191641543 -0.03408974712492956
-0.6786325130524624 0.7339764031090463 -0.02713948981108242
-0.7010596062492657 0.7128208739116608 -0.02004570281732431
-0.7261593634087534 0.6873960764096599 -0.01338704860672099
-0.752601731257618 0.6584347945221684 -0.007365831289507261
-0.7794229341071575 0.6264949027588461 -0.002006640220157298
-0.8059298463380287 0.5920046945643911 0.002743063120512566
-0.8316274475616858 0.5552903444838519 0.006958576365892697
-0.8561625943457407 0.5165955247210441 0.01070868252209569
-0.8792799875645462 0.4760982625379004 0.01404093575525736
-0.9007879316716932 0.4339273300780497 0.01697569927772319
-0.9205324251635436 0.3901789131283547 0.01950563950503502
-0.9383786171843916 0.3449334166831345 0.02159881631959902
-0.9541989059925569 0.298271700669969 0.02320431817682414
-0.9678670051886559 0.2502896796933136 0.02425977135425073
-0.9792571967002952 0.2011100332807269 0.02470014624457674
-0.9882477527744408 0.1508898134370563 0.02446718899256347
-0.9947272166610442 0.09982303198234858 0.02351864621151746
-0.998601982384058 0.04813788200687366 0.02183632511485287
-0.9998035304897899 -0.003910987073637567 0.01943205085061754
-0.998293850383028 -0.05605390166313237 0.01635079190032371
-0.9940680376708739 -0.108019404483618 0.01267062493257901
-0.9871537293478576 -0.1595470762090758 0.008499712215810683
-0.9776077889955044 -0.210397819414773 0.003970954649639396
-0.9655113123767038 -0.2603599833845225 -0.0007646728879818908
-0.9509644615503113 -0.3092504586944414 -0.005544967592643319
-0.9340828064286536 -0.3569106607564844 -0.01020249835775004
-0.9149967908297504 -0.4031979864278268 -0.01456902576712734
-0.8938557416644338 -0.4479737439602655 -0.01847803603597572
-0.8708376090247166 -0.4910887069715105 -0.02176558276646997
-0.8461654599711778 -0.5323673274903019 -0.02427020751040679
-0.8201317080610301 -0.5715913019046759 -0.0258334089855434
-0.7931312031316956 -0.6084825734208301 -0.02630308845045611
-0.765704711417485 -0.6426848423450799 -0.02554385117685273
-0.7385951833345302 -0.6737408702622479 -0.02346049644189589
-0.7128208739029233 -0.7010596062583577 -0.02004570281005058
-0.6897720675845452 -0.7238612189571197 -0.01547354096688954
-0.6713412156934612 -0.7410769634533781 -0.0102910810873099
-0.6601135790611133 -0.7511428020169491 -0.005878240999917352
-0.6217131824471324 0.7820904619143062 -0.04251150613804682
-0.6326427798430997 0.7735437060568755 -0.03732623651252603
-0.6507853878241813 0.7586475566820521 -0.03053299420106245
-0.6737408702741705 0.7385951833239471 -0.0234604964326816
-0.6997000551123667 0.7142425820475505 -0.01665433474500546
-0.7273092132380615 0.6862324570388465 -0.01031131637858953
-0.7555694495874518 0.6550533584078608 -0.004461444687241938
-0.7837503276820208 0.6210753127737497 0.0009379345997595641
-0.8113188496027535 0.5845736281091666 0.005949588099176123
-0.8378824529656543 0.5457472503634743 0.01062702841646822
-0.8631437896253229 0.5047354044443022 0.01499899768925726
-0.8868653819199842 0.4616345007959234 0.01906258185080831
-0.9088428504153585 0.4165160895652875 0.02278201883344131
-0.9288859291565462 0.3694457436534679 0.02609162914260514
-0.9468068027872604 0.3205020272997369 0.02890205343092353
-0.9624153746965619 0.26979410399528 0.0311092911693596
-0.9755208768878564 0.2174761327933593 0.03260598750524757
-0.9859387967259222 0.1637564950620684 0.03329413515360993
-0.99350151725715 0.1089002268648557 0.03309797269506851
-0.9980705322186413 0.05322383397149552 0.03197555651075342
-0.9995478177924481 -0.00291712354939196 0.02992741780628777
-0.997884112113856 -0.05914595537257368 0.02700101394033653
-0.9930825267931598 -0.1150854282002315 0.02329032404416196
-0.9851969785801069 -0.1703776346470362 0.01893079524765773
-0.9743261170879494 -0.2246999567006565 0.01409067134817663
-0.960604425774883 -0.2777748187983668 0.00896031379144659
-0.9441927624743957 -0.3293721753984858 0.003741305151687711
-0.9252707135054895 -0.3793049547989406 -0.00136308254174496
-0.9040328620023332 -0.4274186480125095 -0.006154977743955501
-0.8806905994711164 -0.4735767587135161 -0.01044612892918821
-0.8554806466242422 -0.517643886508674 -0.01405951676136549
-0.8286811403950345 -0.5594679096667889 -0.01682930796729725
-0.8006360797407065 -0.598862151526353 -0.01860084102022816
-0.7717891178909014 -0.6355876331739136 -0.0192332540555714
-0.7427281317938877 -0.6693344741060947 -0.0186087080443131
-0.7142425820336122 -0.6997000551268711 -0.01665433473339827
-0.6873960764211517 -0.7261593633977057 -0.01338704861590242
-0.6636158504822978 -0.7480193821523072 -0.009000384054970195
-0.6447988402764911 -0.7643416349913901 -0.004039875837192852
-0.6334567341410676 -0.7737780922117872 0.0001731600968562248
-0.5902390034663418 0.8060198810672785 -0.04415733360778645
-0.6011286953709977 0.7981912985504188 -0.03917834248609523
-0.61936740405558 0.7844255588511665 -0.0325662619053292
-0.6426848423302857 0.7657047114295337 -0.02554385118790734
-0.6693344741241046 0.7427281317780058 -0.01860870803041837
-0.6979781267411787 0.7160195484962982 -0.01193904359787579
-0.7276064228654856 0.685972279159323 -0.005561081716317367
-0.7574648512988259 0.6528757011596875 0.0005638103345408889
-0.7869882575501672 0.6169338478402185 0.006489211601826455
-0.8157455016412559 0.5782811628607101 0.01225451886123249
-0.8433940601364228 0.5369983020753393 0.01786848887853086
-0.8696437240096152 0.4931296548107159 0.02330100506312199
-0.8942287143015225 0.4467033197062691 0.02848070719002722
-0.9168879570900359 0.3977533873297004 0.03329740246639739
-0.9373536075014672 0.346343450948329 0.03760888843328394
-0.9553479728809704 0.292589339227874 0.04125202155550865
-0.9705886459620664 0.2366782752137148 0.04405762557586374
-0.9828008895652554 0.1788812932054681 0.045868228774192
-0.9917352529467811 0.1195560453410618 0.04655684788503005
-0.997187333782195 0.05913829777207747 0.04604435992580998
-0.9990159429374669 -0.001877654088265767 0.04431275405442942
-0.997156051011941 -0.06296713586266102 0.0414119515541593
-0.9916239454110151 -0.1236073518136325 0.0374589570745448
-0.9825137975158454 -0.1833083406927433 0.03262958662724121
-0.9699868231228702 -0.2416376221645584 0.02714447499324868
-0.9542558233799378 -0.2982350993112147 0.02125203718014916
-0.9355687040736734 -0.3528169721825722 0.01521131479618835
-0.9141945145566506 -0.4051694993774443 0.009277194013301609
-0.8904148487742762 -0.4551349074838758 0.003689589669055993
-0.8645224937314787 -0.5025923609627662 -0.001332866901595058
-0.8368283423622461 -0.5474367730155697 -0.005595084409945629
-0.8076770438249326 -0.5895575774685873 -0.008925005747231452
-0.7774717067308995 -0.6288186727294647 -0.01117237932115238
-0.7467081518292937 -0.6650397432361909 -0.01220966453351968
-0.7160195484764784 -0.6979781267617933 -0.01193904358136882
-0.6862324570562175 -0.7273092132214755 -0.01031131639241485
-0.6584347945078591 -0.7526017312702442 -0.007365831278547055
-0.6340544971893862 -0.7732812861824805 -0.003308630212438224
-0.6149470203309695 -0.7885673074989069 0.001328054963515774
-0.6035239332718259 -0.797327328382785 0.005290877250001803
-0.5560401178728226 0.8299654282407267 -0.04446094062392551
-0.56682042747617 0.8228845577003899 -0.03969392515190364
-0.5850101243259146 0.8103432894421053 -0.03327022230652681
-0.608482573438471 0.7931312031185855 -0.02630308843767588
-0.6355876331524166 0.7717891179082055 -0.0192332540715959
-0.6650397432608105 0.7467081518076772 -0.01220966451453621
-0.6958500675904954 0.7181679296692743 -0.00524482877230679
-0.7272629386029006 0.6863568415943134 0.00170415121149683
-0.7586967592534342 0.6513860187513689 0.008688041987549446
-0.789691545638209 0.6133022349403534 0.0157363072130441
-0.8198639684323499 0.5721026534281024 0.02283915950473857
-0.8488700248415629 0.5277532059234517 0.02993717693775769
-0.8763755057074082 0.4802115368730584 0.03691683694602468
-0.9020348603261389 0.4294544649295638 0.04361161896174904
-0.9254794941050969 0.3755086747234782 0.04980904735477705
-0.9463166312121438 0.3184818733034069 0.05526418250957442
-0.9641393469875517 0.2585902047220187 0.05971955803789378
-0.9785471047690937 0.1961767581032525 0.06293046422935099
-0.9891742391550236 0.1317161353925645 0.06469300015710637
-0.9957217985136538 0.06580168603755875 0.06487093401014296
-0.9979867424299234 -0.0008848108400523559 0.06341670950062232
-0.9958824556161926 -0.06761726934469903 0.06038244349335329
-0.9894462342198393 -0.1336759651896922 0.055918565063695
-0.9788324667746169 -0.1983958012433976 0.05026040227563362
-0.96429367287038 -0.2612040020347719 0.04370562644752583
-0.9461542162902983 -0.3216420051507827 0.03658714963856987
-0.9247826253348179 -0.3793701959177242 0.02924637290655027
-0.9005679755909008 -0.4341576306836979 0.02201074872020354
-0.8739042631745529 -0.4858610584487803 0.01517796720157441
-0.8451848615318699 -0.5343981830219772 0.00900732036527451
-0.8148076391331708 -0.5797194947763554 0.003717335937886476
-0.783190420617611 -0.6217817162393203 -0.0005122531545149832
-0.7507962273959394 -0.660524424739649 -0.003536841865272652
-0.7181679296433079 -0.6958500676174577 -0.005244828750688972
-0.6859722791831019 -0.7276064228429232 -0.005561081735176291
-0.6550533583870407 -0.7555694496055956 -0.004461444671401773
-0.6264949027759737 -0.7794229340933578 -0.002006640232745716
-0.6016898885725444 -0.7987282105365918 0.001588610264474481
-0.5824183005548588 -0.8128684784202683 0.005810332994566413
-0.5709756809502804 -0.8209122886389185 0.009475554072246201
-0.519659725277245 0.8532624365507465 -0.04355438320377081
-0.5302396140156193 0.846950385602496 -0.03899994944035105
-0.5482074098576629 0.8357005895706345 -0.03275912649088625
-0.5715913018842664 0.8201317080748015 -0.02583340899992259
-0.5988621515512373 0.8006360797225113 -0.0186008410022448
-0.6288186727009475 0.7774717067536592 -0.01117237934239089
-0.6605244247708866 0.7507962273685712 -0.003536841841171659
-0.6932509612701001 0.7206830574710567 0.004362954532336253
-0.7264239099443718 0.6871316769605814 0.01258417968999798
-0.7595731061587184 0.6500778472536839 0.02115393368647524
-0.7922877373282549 0.6094072654582114 0.03004872852582689
-0.8241771873947216 0.564975086091786 0.03918055479066573
-0.8548385716209292 0.5166328966009108 0.04838870342178396
-0.8838326680071477 0.4642636023146994 0.05743798855413825
-0.9106707141547823 0.4078229500615202 0.06602493304757763
-0.9348148449175839 0.3473840851619708 0.07379365215175021
-0.9556942992891021 0.2831789043794082 0.08036239431966558
-0.9727375430111607 0.215627849705168 0.08535984329961832
-0.9854172036189756 0.1453492951805783 0.08846760538336698
-0.9933009205599341 0.07314190341029059 0.08946252388741763
-0.9960982873508609 -6.147372639085678e-05 0.08825076859530499
-0.9936935728952692 -0.07326270971235775 0.08488615053256193
-0.9861567009199897 -0.1454780454961442 0.0795682066482791
-0.9737304157298957 -0.2158132327581852 0.07262042446133896
-0.9567976841165799 -0.2835205545371133 0.06445375725368126
-0.9358378655256258 -0.3480296394992793 0.05552350383794137
-0.9113816361485073 -0.4089510305701248 0.04628788056178564
-0.8839731955460852 -0.4660573344436578 0.0371745957249604
-0.8541451387568668 -0.5192499260117577 0.02855864623535708
-0.8224080329898484 -0.568519480355454 0.0207515717508917
-0.7892542278870097 -0.613906961094148 0.01400024580597962
-0.7551741436418793 -0.6554692193151648 0.008492073075647276
-0.7206830574391326 -0.6932509613031205 0.004362954558878524
-0.68635684162457 -0.7272629385744021 0.001704151187593506
-0.6528757011320059 -0.7574648513226698 0.0005638103554680471
-0.6210753127979587 -0.7837503276628579 0.0009379345821272606
-0.5920046945444941 -0.8059298463525965 0.002743063134561591
-0.5669903063595458 -0.8237043536573232 0.00575588918233372
-0.5477109188670746 -0.8366139258201396 0.009480953411880415
-0.5363327092039459 -0.8439095070498075 0.01280503607593064
-0.4815241679070291 0.8754449211695227 -0.04160127065284153
-0.4917972463945744 0.8699123544757591 -0.03725538845797915
-0.5093471753861186 0.8599959926219128 -0.03118248868248011
-0.5323673275133395 0.8461654599571381 -0.02427020749456318
-0.5594679096386818 0.8286811404136092 -0.01682930798705942
-0.5895575775008062 0.8076770438016717 -0.008925005723966635
-0.621781716204023 0.7831904206456167 -0.000512253180814821
-0.6554692193524645 0.7551741436091801 0.00849207310448501
-0.690081822759782 0.7235033914687483 0.01816371189365389
-0.7251655848400348 0.6879828520990439 0.02853891696044326
-0.7603048962657005 0.6483587836933297 0.03958980073336834
-0.7950797917701026 0.6043394727714101 0.05120474947877263
-0.8290281814779347 0.5556269691737571 0.06317393008332645
-0.8616159734653627 0.5019617575648723 0.07518183431999667
-0.8922195401579551 0.4431797349185083 0.08681022242735735
-0.9201259329884658 0.3792772299489379 0.09755537035122795
-0.944555744123505 0.3104751703627169 0.1068625979074671
-0.9647106984938628 0.2372690630707702 0.1141781937192992
-0.9798426618037973 0.1604493601801537 0.1190141207043431
-0.989333813025958 0.08107939347588981 0.1210154467706505
-0.9927718014633529 0.0004265603241214718 0.1200165333006188
-0.9900020464811282 -0.08014488831216016 0.1160721535968422
-0.9811439407146395 -0.1592989870219162 0.109455015110038
-0.9665675563032711 -0.2358447553381482 0.1006201296034329
-0.9468385209913227 -0.308821348335443 0.09014538246212699
-0.922646351895785 -0.377539237874716 0.07866278153216717
-0.8947331789606688 -0.4415778643701268 0.06679467168309916
-0.8638361291763265 -0.5007500311420616 0.05510488400209908
-0.8306504504085981 -0.5550475273835664 0.04406894123281893
-0.7958145858935179 -0.6045815885634966 0.03406240815278652
-0.7599145507115712 -0.6495279637085547 0.02536335895437907
-0.7235033914315112 -0.69008182279801 0.01816371192452121
-0.6871316769969045 -0.726423909910508 0.01258417966144658
-0.6513860187169691 -0.7586967592826724 0.008688042013376699
-0.6169338478716609 -0.7869882575257061 0.006489211579126232
-0.5845736280816916 -0.8113188496224092 0.005949588118365942
-0.5552903445064092 -0.8316274475467522 0.006958576350561012
-0.530317360375817 -0.8477484057358413 0.009281048236306634
-0.511212182723776 -0.8593645439555611 0.01243723549839712
-0.4999990450469342 -0.8658893492157099 0.01538147804821004
-0.4419644643585883 0.8961942393169874 -0.03877238268757618
-0.4518142676415541 0.891439738147185 -0.03462745742331999
-0.4687331051516044 0.8828734399340927 -0.02870130996794625
-0.4910887069460271 0.8708376090386585 -0.02176558278363826
-0.5176438865397744 0.8554806466057743 -0.01405951674000802
-0.5474367729799114 0.8368283423854055 -0.005595084435004309
-0.5797194948154123 0.814807639105254 0.003717335966101932
-0.613906961052897 0.7892542279196423 0.01400024577518621
-0.6495279637507869 0.7599145506743796 0.02536335898716184
-0.6861766653320506 0.726448606628432 0.03786827011359804
-0.7234638840682083 0.6884388031139931 0.05149779428202887
-0.7609685376856161 0.64540993222508 0.06612793689381237
-0.7981911449531232 0.5968652366592871 0.08150328451096327
-0.8345135982820308 0.5423425680137071 0.09721930468108876
-0.8691722115101038 0.4814918770509785 0.1127175189247887
-0.9012533920023936 0.4141699683484323 0.1273010633201378
-0.9297216494688871 0.3405405945581288 0.1401775943824388
-0.9534861479648779 0.2611592213767498 0.150532477322962
-0.9715034919757628 0.1770159134152203 0.1576271914254453
-0.9829020416148208 0.08951189068365367 0.1609074206357627
-0.9871012814045599 0.0003588284393678803 0.1600966317310473
-0.9838952572333598 -0.08858717623311455 0.1552495893738318
-0.9734765704365184 -0.1755220434434864 0.1467493750466302
-0.9563952983558262 -0.25887430289125 0.1352483958701145
-0.9334673610832147 -0.3374303376366642 0.1215707737688032
-0.9056597707098516 -0.4103855432439764 0.1066024653285504
-0.8739813166182859 -0.477326262082123 0.09119373733363127
-0.8393988886069732 -0.5381634604839667 0.07608939219956859
-0.802787872628048 -0.5930439415911877 0.06189115367579188
-0.7649152526408775 -0.6422607903975714 0.049048276169799
-0.726448606586942 -0.6861766653740883 0.03786827014779515
-0.6879828521405598 -0.7251655848019226 0.02853891692804556
-0.650077847213207 -0.7595731061925212 0.02115393371660821
-0.613302234978662 -0.7896915456090031 0.01573630718565337
-0.5782811628257167 -0.8157455016656996 0.01225451888540783
-0.5457472503940267 -0.8378824529460146 0.01062702839595972
-0.5165955246959781 -0.8561625943606597 0.0107086825385274
-0.4919449976746483 -0.8705401425040471 0.01224661389622113
-0.473216538368439 -0.8808222857293985 0.01477189145061917
-0.4622809589283209 -0.8865646699240635 0.01730320937710389
-0.4012352288187236 0.9152971321943578 -0.03523422982797016
-0.4105395123027127 0.9113061117317715 -0.03128065789861798
-0.4266026031540892 0.9040802624847837 -0.02547740111547547
-0.4479737439879706 0.8938557416509283 -0.0184780360176238
-0.4735767586796943 0.8806905994890334 -0.01044612895195636
-0.5025923610015413 0.8645224937089778 -0.001332866874970811
-0.5343981829795206 0.8451848615590328 0.009007320335419565
-0.5685194804002575 0.8224080329580583 0.02075157178331442
-0.6045815885176887 0.7958145859297872 0.03406240811846888
-0.6422607904430744 0.7649152526003909 0.04904827620535611
-0.6812317248839542 0.7291114851678436 0.06572502725730414
-0.7211107267544536 0.6877116570568514 0.08397616630796351
-0.7613966559349321 0.6399688889342874 0.1035130596944947
-0.8014143067019428 0.5851484630070363 0.1238401601014261
-0.8402702617068557 0.5226301342481631 0.1442346354619402
-0.8768360158404217 0.4520435410227924 0.1637535903260452
-0.9097758775222611 0.3734223867432307 0.1812831314755688
-0.9376338924132341 0.2873467323625137 0.1956387977845739
-0.9589815000880796 0.1950288121959869 0.2057139881054239
-0.9726062562853464 0.09829655201970872 0.2106534075101551
-0.977699116571364 -0.0005504246964466075 0.2100098437888746
-0.9739867677921028 -0.09899655090417184 0.2038368442528717
-0.9617671999455698 -0.194618081592285 0.1926853793783971
-0.9418391404408586 -0.2853612154669662 0.1775049583556462
-0.9153526355247296 -0.3697228796595549 0.1594821146529516
-0.8836296230407196 -0.4468070604003791 0.1398647205741575
-0.8480018618925314 -0.5162725469379364 0.1198144377986882
-0.8096956868898409 -0.5782134295950923 0.1003101414009034
-0.7697716274035598 -0.6330169379701964 0.08210479819907524
-0.7291114851235004 -0.6812317249279232 0.06572502729348835
-0.6884388031594233 -0.7234638840274742 0.05149779424695791
-0.6483587836478779 -0.760304896302718 0.03958980076682477
-0.6094072655025133 -0.7922877372953662 0.03004872849452022
-0.5721026533861864 -0.8198639684608021 0.02283915953334557
-0.5369983021136081 -0.8433940601125939 0.01786848885317036
-0.5047354044109076 -0.8631437896444758 0.01499899771084943
-0.4760982625652778 -0.8792799875499996 0.01404093573790726
-0.4520760654989177 -0.891857990662236 0.01471582464344748
-0.4339422293620233 -0.9007885024450324 0.01655945165614888
-0.4234045903546975 -0.9057486918540748 0.01865100724364158
-0.359532138297151 0.9326128070029667 -0.0311447225950882
-0.3681664579482376 0.9293568704534397 -0.02737273429594684
-0.3831433420422917 0.9234346799466583 -0.02166959437727367
-0.4031979863981468 0.9149967908425203 -0.01456902578652221
-0.4274186480487435 0.9040328619853654 -0.006154977719956793
-0.4551349074423412 0.8904148487956226 0.003689589641087424
-0.4858610584942317 0.8739042631487411 0.0151779672328064
-0.519249925963842 0.8541451387871239 0.02855864620161092
-0.5550475274324754 0.8306504503740333 0.04406894126831993
-0.593043941542717 0.80278787266667 0.06189115363927511
-0.6330169380168794 0.7697716273612405 0.08210479823591917
-0.6746660967658872 0.730669445004032 0.1046318307790796
-0.7175376503626469 0.6844365425519919 0.1291756150808922
-0.7609450146994025 0.629990594196962 0.1551597107095926
-0.8038973625337416 0.5663404296822253 0.1816797958460045
-0.8450577482078184 0.4927730403376219 0.2074900790648729
-0.8827598528810133 0.4090849685503311 0.2310509265241448
-0.9151118277943473 0.3158155662166266 0.250660868039189
-0.9401992033118046 0.2144098041163347 0.2646769615789072
-0.9563637077879177 0.1072269601412766 0.271791900992298
-0.9624919950033302 -0.002659535662629208 0.2712970446292557
-0.9582232518708816 -0.1118533156653139 0.2632433006719606
-0.9440018742574796 -0.217115556518039 0.2484377115420028
-0.9209595630477289 -0.3157903452125798 0.228276019549701
-0.8906772667822254 -0.4060594402941297 0.2044742951702291
-0.8549124419713406 -0.4869899262535782 0.1787890608793863
-0.8153680115431112 -0.5584154830017034 0.15279775553393
-0.7735432187398155 -0.6207297709830353 0.1277710458476183
-0.7306694449584669 -0.6746660968095648 0.1046318308156398
-0.6877116571046027 -0.7211107267131371 0.08397616627169902
-0.6454099321761432 -0.7609685377240402 0.06612793692927206
-0.6043394728203809 -0.7950797917350751 0.05120474944468624
-0.5649750860440474 -0.8241771874259202 0.03918055482277225
-0.5277532059686142 -0.8488700248145253 0.02993717690825759
-0.4931296547694917 -0.8696437240322876 0.02330100508939464
-0.4616345008318806 -0.8868653819017501 0.01906258182835615
-0.4339273300485846 -0.9007879316855461 0.01697569929581731
-0.4108584034741002 -0.9115457037247696 0.01672729253726639
-0.3935476548451872 -0.9191308820189901 0.01785119281297713
-0.3835330272652992 -0.923321629299266 0.01948296345178566
-0.3170080909629147 0.9480482697351604 -0.02665236417686435
-0.3248490023543414 0.9454848704977959 -0.0230539655841327
-0.3385090252904951 0.9408016400929023 -0.01743312351196198
-0.3569106607878739 0.9340828064168814 -0.01020249833744914
-0.379304954760619 0.9252707135211621 -0.001363082566800404
-0.4051694994213569 0.9141945145368934 0.009277194042406104
-0.4341576306356759 0.9005679756148428 0.02201074868783781
-0.4660573344942229 0.8839731955179628 0.03717459575975238
-0.5007500310905395 0.8638361292085132 0.05510488396572764
-0.5381634605348956 0.8393988885709557 0.07608939223669509
-0.5782134295462121 0.8096956869293448 0.1003101413637894
-0.6207297710285533 0.7735432186972732 0.1277710458840402
-0.6653640993032977 0.7295617934443133 0.1582093704703623