# OOMMF: rectangular mesh v1.0
# Segment count: 1
# Begin: Segment
# Begin: Header
# Title: 
# Desc: time = 3.0599999999999998e-09
# Desc: stepsize = 2.957635228098434e-14
# Desc: step = 19582
# meshunit: m
# valueunit: (none)
# valuemultiplier: 384000.0000000001
# xmin: 0
# ymin: 0
# zmin: 0
# xmax: 9.357999999999999e-08
# ymax: 9.357999999999999e-08
# zmax: 2.3395e-08
# ValueRangeMaxMag: 1
# ValueRangeMinMag: 0
# meshtype: rectangular
# xbase: 1.16975e-09
# ybase: 1.16975e-09
# zbase: 1.16975e-09
# xstepsize: 2.3395e-09
# ystepsize: 2.3395e-09
# zstepsize: 2.3395e-09
# xnodes: 40
# ynodes: 40
# znodes: 10
# End: Header
# Begin: Data Text
0 0 0
0 0 0
0 0 0
0 0 0
0 0 0
0 0 0
0 0 0
0 0 0
0 0 0
0 0 0
0 0 0
0 0 0
0 0 0
0 0 0
0 0 0
0 0 0
-0.986811939124873 0.1611983838741552 0.01474034724718498
-0.9914165631016145 0.1297949526123818 0.0156993211359914
-0.9960446310217186 0.08735053011247211 0.0162781418435255
-0.9990385307610946 0.04062882262975136 0.01647157631899884
-0.9998380002462166 -0.007291818457461264 0.0164560823779374
-0.9983981077326237 -0.05412900337355248 0.01647026015889812
-0.9951678324376872 -0.09674224588042703 0.01679056709242853
-0.9915876190127234 -0.1282351629119094 0.01759934128407391
0 0 0
0 0 0
0 0 0
0 0 0
0 0 0
0 0 0
0 0 0
0 0 0
0 0 0
0 0 0
0 0 0
0 0 0
0 0 0
0 0 0
0 0 0
0 0 0
0 0 0
0 0 0
0 0 0
0 0 0
0 0 0
0 0 0
0 0 0
0 0 0
0 0 0
0 0 0
0 0 0
0 0 0
-0.9278167937012548 0.3726479655636298 0.01701443761075324
-0.9391381921367543 0.3430581952097707 0.01818050520537881
-0.9532603859874563 0.301577376570016 0.01859361310213026
-0.9674491333227635 0.2524178278078387 0.01809460244950298
-0.981194218405978 0.1922570005601341 0.01717997387372538
-0.9896020114721396 0.1427524025688964 0.01759575093886371
-0.9954600588904653 0.09344769225832832 0.01807760950412201
-0.9989053862017548 0.04304148667284604 0.01831556283911017
-0.999800788253269 -0.007896900869008305 0.01833092373030553
-0.9981208224054802 -0.05849604387917035 0.01824929398890746
-0.9939673133191119 -0.1081581163945257 0.01818796061062746
-0.9872506344268025 -0.1581479160299586 0.01803944232110125
-0.9756040599157546 -0.2188838012139045 0.0169292599379846
-0.9630449402937081 -0.2689071856508405 0.01527640271895319
-0.9502098937778765 -0.3112809141048248 0.0143300481751051
-0.9397714599514557 -0.3414933857820991 0.01455577300547983
0 0 0
0 0 0
0 0 0
0 0 0
0 0 0
0 0 0
0 0 0
0 0 0
0 0 0
0 0 0
0 0 0
0 0 0
0 0 0
0 0 0
0 0 0
0 0 0
0 0 0
0 0 0
0 0 0
0 0 0
0 0 0
0 0 0
-0.8782715425087235 0.4778950426972581 0.0159820456992355
-0.8934223317753305 0.4488955029748977 0.01701071703497986
-0.9153795734857657 0.4021960869754128 0.01784780285309943
-0.9329241491201833 0.3595633193329915 0.01915075399619078
-0.949290242795515 0.3137566115069767 0.02012023033893563
-0.9643911915224758 0.2636752677517594 0.02061511314295536
-0.9776731257359381 0.2090845030515471 0.02095065147930545
-0.9876401753024449 0.1552466839000962 0.02157200191403081
-0.994617742025515 0.1012188627652241 0.0221424720521472
-0.998659572328377 0.04664052175608136 0.02244371464848982
-0.9997141647282143 -0.008282222991826387 0.02242751934748521
-0.9977577942168077 -0.06316391973228649 0.02212924137115822
-0.9928048659511923 -0.1177831914701383 0.02157818228542697
-0.9847965038972468 -0.1724749748393276 0.02069369386872662
-0.9734378502753578 -0.2281384858966043 0.01927648578175362
-0.9599936305032027 -0.2794673544076535 0.01761326811431054
-0.9450261684542164 -0.3265864211156508 0.01633555874811854
-0.9287029733631288 -0.3704916673200119 0.01570705933395545
-0.9081563069534527 -0.4183509774376374 0.01531606403873983
-0.8938410150018606 -0.4481201435088544 0.01538105594705936
0 0 0
0 0 0
0 0 0
0 0 0
0 0 0
0 0 0
0 0 0
0 0 0
0 0 0
0 0 0
0 0 0
0 0 0
0 0 0
0 0 0
0 0 0
0 0 0
0 0 0
0 0 0
0 0 0
-0.8406421950856862 0.5413443101150984 0.01634128965310308
-0.8620319380321886 0.5065668142492638 0.0170587371695621
-0.882928924079649 0.46913993927133 0.01855350112635442
-0.9046786742428097 0.4256116365249293 0.02027883687105965
-0.9247559377061234 0.379912899061577 0.02219560325595626
-0.9432292946184476 0.3312749820666331 0.02398716386604767
-0.9598608655662741 0.2793139634153308 0.02551134248880807
-0.9741754285755775 0.2241937613075989 0.02682147927203857
-0.9854777666069605 0.1674829779117797 0.02798255944617441
-0.9935540838160387 0.1096264630407624 0.02884997631963262
-0.9982725504457954 0.05093639076016402 0.02928137843022306
-0.9995396767797298 -0.008189139787267348 0.02921254067377883
-0.9973214628371155 -0.06730176591922415 0.02864213798914056
-0.9916484404901063 -0.1259845574249371 0.02759097250881476
-0.9826017259803727 -0.1838862795649067 0.02607075541998828
-0.970349732128057 -0.2404983579053571 0.02412337463611378
-0.9555006795872527 -0.2941688352389614 0.02198062061112507
-0.9385223668660285 -0.3446390565332481 0.01999218857603115
-0.9196984191304585 -0.3921960551433386 0.01835952556407222
-0.8990599460621362 -0.4374921561451102 0.01708293587913739
-0.8790615859915784 -0.4764294336614531 0.01630100533700774
-0.8586695842300159 -0.5122803045642528 0.01598232379246058
0 0 0
0 0 0
0 0 0
0 0 0
0 0 0
0 0 0
0 0 0
0 0 0
0 0 0
0 0 0
0 0 0
0 0 0
0 0 0
0 0 0
0 0 0
0 0 0
-0.766479563529729 0.6420355448218578 0.01730427336167836
-0.7870984345986596 0.616564585925646 0.01800460037533393
-0.8184640823186552 0.5742684633575361 0.01822849273129838
-0.8445028669846457 0.5351891439258027 0.01968471180077412
-0.8688677792062073 0.4945568757950856 0.02196084836878581
-0.8925333426192428 0.4503059798406203 0.02467299804845969
-0.9148707883731528 0.4028029142451177 0.02759081109944882
-0.9355246774659305 0.3519448163814057 0.03047005209257664
-0.9540866741449721 0.2976928166127766 0.03313012460189243
-0.9700543859901587 0.2402846585803228 0.03546506833763536
-0.9828772016838171 0.1804309127530927 0.03737769566565372
-0.9921691738513769 0.1187464411115617 0.03872483934652234
-0.9976635248595892 0.05582950184130253 0.03937712392863501
-0.9991993217486669 -0.0076893478233796 0.03926307867518904
-0.9967268182467089 -0.07115458190208791 0.03837545129546328
-0.9903116911203793 -0.133908800891954 0.03675850206377659
-0.9801366646993528 -0.1952996646890392 0.03449868815442719
-0.9665170161491704 -0.2546320020140996 0.03173958166698178
-0.9499447402693175 -0.3110958557479965 0.02871165218303766
-0.9309088844513662 -0.3643472506695262 0.02568520545118558
-0.9098457989321822 -0.4143159744858831 0.02286690733946613
-0.887172269602756 -0.4609886136238223 0.02036816528508681
-0.8635816271572577 -0.5038787433442716 0.01824788322572784
-0.8382938362740844 -0.5449724957891869 0.01638361676134109
-0.8079666784911891 -0.5890535591682753 0.0143440189313178
-0.7878718517727833 -0.6156925615629831 0.01343930132621516
0 0 0
0 0 0
0 0 0
0 0 0
0 0 0
0 0 0
0 0 0
0 0 0
0 0 0
0 0 0
0 0 0
0 0 0
0 0 0
-0.7191405590276893 0.6946750396149262 0.01623101036112504
-0.7444340811251053 0.6674694556310243 0.01739036109584386
-0.7700723082076604 0.6376728383697418 0.01902606993581826
-0.7983599855662733 0.6018144178718282 0.02099380594869633
-0.825792924365595 0.5634724078125964 0.02376745046472515
-0.852440293349361 0.5221119228103716 0.02728894160115588
-0.8783309868295129 0.4770257632649287 0.03132249601493323
-0.9030419279314115 0.4280732989097195 0.03561638890270403
-0.926086883936285 0.3751937404355402 0.03990915357620821
-0.946922359158901 0.3184431241293168 0.04395477698386697
-0.9649526701713186 0.2580835301714371 0.04753141890887348
-0.9795762217679965 0.1946466874056892 0.05042908712963353
-0.9902823833199337 0.1288024484078447 0.05244740766077698
-0.9966870072156068 0.06132332872823798 0.05342713731134172
-0.9985554412877039 -0.006942008186160233 0.05328075822528999
-0.9958185219341777 -0.07510602615216627 0.05200534788325848
-0.988578324559435 -0.1422841331765115 0.04968019381472524
-0.9771027399418294 -0.2076339364311428 0.04645841194312438
-0.9618106037474906 -0.2703868636127905 0.04255944671309554
-0.9432428505164785 -0.3298929889788232 0.03825625141288223
-0.9219767663257525 -0.3857641590092994 0.03383572046455657
-0.8985785338053008 -0.4378169898998772 0.02954491393329532
-0.8735925641072306 -0.485986187084726 0.02556282260242803
-0.8475293443618972 -0.5302924336088662 0.02199875684392339
-0.8204956419451753 -0.5713407312869203 0.01888571739438984
-0.7925602608069841 -0.6095759891611212 0.01628945756632259
-0.7671696238446798 -0.641275616145667 0.01470892202056808
-0.7423682932706058 -0.6698402679323748 0.01425947414076364
0 0 0
0 0 0
0 0 0
0 0 0
0 0 0
0 0 0
0 0 0
0 0 0
0 0 0
0 0 0
0 0 0
-0.6654009377289805 0.7463234557900845 0.01558497375482806
-0.6924465104220607 0.7212758904008473 0.01670090209465393
-0.7193896250756889 0.6943538779075907 0.01874192007639077
-0.7469946156556154 0.6644799870621937 0.02157292227180835
-0.775717772276087 0.6305789231388591 0.02514278162934675
-0.8046161805917252 0.5930595736794549 0.02954901008708113
-0.8333430645176592 0.5516635878547574 0.03473647442577146
-0.8615878441900131 0.5059890220152695 0.04051538404157243
-0.8888620594344954 0.4557966442875235 0.04662250909270908
-0.9145666830494785 0.4009803860011408 0.05274952415188422
-0.9380210256839258 0.3415943198801153 0.05856514322117473
-0.9584911086638637 0.2779081854805812 0.06373252745033617
-0.975242417039749 0.2104481335351904 0.06792504028723223
-0.9876176077717997 0.1399702006358138 0.07085057341388849
-0.9951024754676102 0.06742104861264857 0.07228738148670348
-0.9973774115884309 -0.006118248271160038 0.07211702913496666
-0.9943495617242661 -0.07950403765526148 0.07034242741951585
-0.9861612284119536 -0.1516088900662319 0.06708782326108664
-0.9731733241841251 -0.2213977368371952 0.06258372967303098
-0.9559263016068978 -0.2879926580872093 0.05714135791194744
-0.9350826087942329 -0.3507241597473998 0.05111827950989094
-0.9113537439861555 -0.409170566216333 0.04487539486870204
-0.8854451159685386 -0.4631269230396772 0.03873499403977716
-0.8580213546130142 -0.5125556450835272 0.03295551123949592
-0.8296704171266542 -0.5575645075204103 0.02772758371018714
-0.8008313009383801 -0.5984408062314899 0.02319113784067693
-0.7719843140543449 -0.6353425875940562 0.01949397966889132
-0.7441833004380977 -0.6677628873882512 0.01685056604287189
-0.717190604568148 -0.6967086870681443 0.01531803130159119
-0.6905138331050876 -0.7231685836275424 0.01475960516588709
0 0 0
0 0 0
0 0 0
0 0 0
0 0 0
0 0 0
0 0 0
0 0 0
0 0 0
-0.6108828431953084 0.7915858737575894 0.01462724707691262
-0.6366144731844429 0.7710173993355446 0.01594310051235913
-0.6632164432371846 0.7482077553191524 0.01814123204452114
-0.6908995975160426 0.7226349047462041 0.02136681058591784
-0.7196987576406617 0.6938130101455068 0.0256360137954075
-0.7495709335752795 0.6612003899184663 0.03094284910526797
-0.7801136694575092 0.6245260563951816 0.03728092822103339
-0.8109637164303314 0.5833973656687931 0.04455742771095171
-0.8416992502248141 0.5373814111911058 0.05256986852980432
-0.8717522986424263 0.4861324616061037 0.06101769894411971
-0.9004123841730167 0.4294469133519211 0.06951896892482196
-0.9268496389709371 0.3673188999971959 0.07763100182461329
-0.950154742345798 0.3000030059790244 0.08487733502731341
-0.9694048027836389 0.228062669341433 0.0907840690477881
-0.9837531232422916 0.1523764318004969 0.09492742250153267
-0.9925232014453823 0.07410209409306 0.09698749529517432
-0.9952896793169423 -0.005400926829656036 0.0967950630691365
-0.9919302088351828 -0.08468160644559615 0.09435828702336112
-0.9826375155033388 -0.1623214902798384 0.0898623776602718
-0.9678896811998672 -0.237051439817896 0.08364317011616254
-0.9483859939767073 -0.3078416599522629 0.07614143961501907
-0.9249625124499011 -0.3739533217485881 0.0678473559953713
-0.8985043423635862 -0.4349482843947337 0.0592447183794194
-0.8698746149554401 -0.4906536713387024 0.05076543172255148
-0.8398650340468297 -0.5411081894082803 0.0427627400994089
-0.8091616672850225 -0.5865123507330477 0.0355057549436168
-0.7783298665017491 -0.6271765124264562 0.02919316995387743
-0.7478879570280089 -0.6633916771708221 0.02398095896652147
-0.7184004890315223 -0.6953422749885193 0.0199964490112431
-0.6901102219074248 -0.7234976443584122 0.01729277961210077
-0.6632064396045193 -0.7482684289636753 0.01586116904044939
-0.6377234116791767 -0.7701054866979864 0.0156968007545601
0 0 0
0 0 0
0 0 0
0 0 0
0 0 0
0 0 0
0 0 0
0 0 0
-0.5840872964762741 0.8115439347801122 0.01544253919048336
-0.6046565816718942 0.7962957498437704 0.01742116590835881
-0.630466717591863 0.7759405400250224 0.02068807276230221
-0.6585578050071076 0.7521057036267725 0.02527109092020952
-0.6882692968866844 0.724783635175018 0.03120988858670685
-0.7193695030391439 0.6935590951020071 0.03851363003533999
-0.7515874773322347 0.657946347565814 0.04714729729445455
-0.7845893029298179 0.6173910754728409 0.05699022420196895
-0.8179195992963504 0.5713227793297277 0.06780715969462248
-0.8509482629637429 0.519238382596819 0.07923733840322543
-0.8828561585264072 0.460782918255764 0.0907970571973357
-0.912650374934045 0.39583628409713 0.1018966600282992
-0.9392105966910126 0.324603226296524 0.1118758264380593
-0.961372379346068 0.2476866915069123 0.1200601977377964
-0.9780440600363653 0.1661168238020093 0.1258372658536173
-0.9883387711204853 0.08131658005867495 0.1287403872435107
-0.9916940675302324 -0.005001990169668982 0.1285218134002353
-0.9879502905266655 -0.09099736298026014 0.1251946619425739
-0.977367665779159 -0.174882644365981 0.119031536111064
-0.9605789142501727 -0.2550949130266585 0.1105202915571613
-0.9384919425779922 -0.3304162090986112 0.1002895930846702
-0.9121686748555885 -0.4000289818395706 0.08902315597975349
-0.8827076328953767 -0.463507712137163 0.07738110633489996
-0.8511511477991526 -0.5207623389463061 0.06594171619966385
-0.8184242838460907 -0.5719597972473499 0.05516957443902894
-0.7853032914792151 -0.6174437328089836 0.04540899918318518
-0.7524145007245105 -0.657655730614896 0.03689659996358097
-0.720274937895251 -0.69304902725439 0.02978354682933476
-0.6893459264565207 -0.7240295324930935 0.02415429062574307
-0.6600623710965584 -0.7509435672071259 0.02003559663761316
-0.6332966062582452 -0.773712871330275 0.0174298949982412
-0.612208871100039 -0.7905269345460749 0.01635432369746244
0 0 0
0 0 0
0 0 0
0 0 0
0 0 0
0 0 0
0 0 0
-0.5069327271309469 0.8618204966204323 0.0168713297784068
-0.5397294805277545 0.8416598986423096 0.01734078621795178
-0.5661079385362155 0.8240909532991065 0.01989730174786471
-0.5931885756439929 0.8046973395750777 0.02427973241702519
-0.6218984598892378 0.7825077629336973 0.03039583089659094
-0.6523633759674933 0.7569400108545898 0.03826023606497831
-0.684553971875806 0.7273873543651979 0.0478904614579533
-0.7183249694619814 0.6931798990415774 0.05925255954092694
-0.7534027950156379 0.6535818727396964 0.07221470825735933
-0.7893406661331868 0.6078303313997949 0.08650780900492021
-0.8254695479639668 0.5552096011629828 0.1016972180573567
-0.8608695559806464 0.4951512909900085 0.1171699902560899
-0.8943734855075912 0.4273567216635539 0.1321449994134525
-0.9246146667313626 0.3519302182472082 0.1457149256243951
-0.9501294758285858 0.2694960273748118 0.1569263215362255
-0.969512614031441 0.1812598009493986 0.1648944383346684
-0.9816027115490059 0.08897822333745126 0.1689348763617174
-0.9856571379601706 -0.005179842240750587 0.1686806913150565
-0.9814686004555099 -0.09886328967318342 0.1641506511558762
-0.9693893425021273 -0.1898087488944857 0.1557464011988804
-0.9502577496451146 -0.2760842264675064 0.1441794338150931
-0.9252530683773817 -0.3562517924702597 0.1303511404628526
-0.8957217585290425 -0.429426152326852 0.1152202716339213
-0.8630177657783005 -0.4952398579881631 0.09968861023654541
-0.8283837802338426 -0.5537473789555015 0.08452309119643232
-0.7928812687985739 -0.6053053980091491 0.07031833849963039
-0.7573641006032078 -0.6504568719799814 0.05749327622872036
-0.7224871745081242 -0.6898316001888785 0.04631032338602043
-0.6887407968241946 -0.7240677879179082 0.03690465132797723
-0.656488374318869 -0.7537664266641895 0.02931191597400212
-0.6259794985015272 -0.7794857649094388 0.02348637390749585
-0.5973182267711007 -0.8017720375379377 0.01930118621461631
-0.5698520051787033 -0.8215819943053849 0.01648389598962798
-0.5369608233151468 -0.8434822397529015 0.01451845191981473
0 0 0
0 0 0
0 0 0
0 0 0
0 0 0
-0.4425198551761026 0.8966138145346131 0.01611971961948398
-0.4709048973761153 0.8820185553709659 0.01708348935387018
-0.4983603739267561 0.8667600835334393 0.01907603975380136
-0.524718365000064 0.8509682266961367 0.02288481123565271
-0.5519000362654782 0.8334162481217615 0.02870030203342184
-0.5807451468921442 0.8132619481522044 0.03660707648669001
-0.6115810826419493 0.7898027507232712 0.04669255084544932
-0.6445257275333324 0.7623009509561642 0.05902411980669812
-0.6795507784255103 0.729926977615972 0.07360262827979873
-0.7164662246831672 0.6917515886094109 0.09030995816965617
-0.7548693605415197 0.6467787330161353 0.108855496111492
-0.7940828980194923 0.5940215187297108 0.1287275664300857
-0.8331046407611801 0.5326236796951989 0.1491598919620506
-0.8705907805616496 0.462025273478262 0.1691281746735122
-0.9048971808064948 0.3821572710916414 0.1873950701599346
-0.9341998042992661 0.2936267830293851 0.2026179605440416
-0.9566983412876742 0.197833158892691 0.2135189102162887
-0.9708757706253444 0.09695139198155846 0.219090542026536
-0.9757528605625682 -0.006253073229532237 0.2187858637552964
-0.971061244625921 -0.108756835718564 0.2126311592171793
-0.9572777854941752 -0.207675935864918 0.2012211396995791
-0.9355119156435654 -0.3006174393893983 0.185597981734359
-0.9072899893300425 -0.3858972287632633 0.1670574873937846
-0.8743079201696378 -0.4625940711610798 0.1469434791178558
-0.8382163245440662 -0.5304676144678575 0.1264812368243463
-0.8004737142196906 -0.5897985643884959 0.1066746750105286
-0.7622728313743024 -0.6412090877674389 0.08826684719107533
-0.7245262102858339 -0.6855027084795435 0.0717482214138936
-0.6878910185693318 -0.7235412987430594 0.05739281823411042
-0.6528132372494277 -0.7561629356970486 0.04530443631635575
-0.619569373171974 -0.7841405348343228 0.03546002618482539
-0.5882807551876019 -0.808180746159962 0.02774228923918861
-0.5588566781768971 -0.8289734948186288 0.02195809976460419
-0.5307068792728464 -0.8473674417487175 0.01785012483736723
-0.5021737621741938 -0.864633595844955 0.01517423869715733
-0.4735369289341613 -0.8806621451011275 0.01403435504335431
0 0 0
0 0 0
0 0 0
0 0 0
-0.4126686427780973 0.9107413198038075 0.01596369849693964
-0.4317784012625649 0.9018051295671583 0.01774599925344899
-0.4551933666172987 0.8901434279680271 0.02106363294729702
-0.4800578446126236 0.8768420830777519 0.0263140109019919
-0.5064568095990931 0.8616027412889857 0.0337966893942622
-0.5348192700018199 0.8438335875973743 0.04374042612120149
-0.5654800772329323 0.8228351514542107 0.05634355139643282
-0.598654766535713 0.7977860285836332 0.07176296468809573
-0.6344306670313513 0.7677139695318147 0.09007213617905285
-0.6727264336203732 0.7314872051896173 0.1112007830561259
-0.7132226974264707 0.6878411595274927 0.134862608367118
-0.7552762609852712 0.6354559009894815 0.1604791808608024
-0.7978377847042021 0.5730994057346925 0.1871147787985561
-0.8394021290168346 0.4998444789466236 0.2134468614634161
-0.8780299333858524 0.4153459385883794 0.2378049355597413
-0.9114793361896234 0.3201280591470794 0.2583088179796555
-0.937465704912216 0.2157914764898265 0.2731155264494896
-0.9540196869151278 0.1050309433984228 0.2807399827370481
-0.9598551648919326 -0.008608567257643987 0.280363968797795
-0.9546253952597917 -0.1212145074883188 0.2720246273767327
-0.9389720832980598 -0.2290951239368891 0.2566064125762293
-0.9143539611811298 -0.3292882809415664 0.2356396861883081
-0.8827294876503579 -0.4198492702459986 0.2109863547873145
-0.8462090643467253 -0.4998820105735594 0.1845215296987719
-0.8067725774578085 -0.5693747215407364 0.1578937450708303
-0.7660962042905107 -0.6289420930550762 0.1323950503424181
-0.7254845975192686 -0.6795634849740472 0.1089291910014573
-0.685879213120784 -0.7223694756129465 0.08804570240216401
-0.6479090272257617 -0.7584938987107521 0.07000641440560737
-0.6119556961033382 -0.7889871265107019 0.05485927639938294
-0.5782124317497557 -0.814778339093624 0.0425046105013247
-0.5467224596429476 -0.8366732500182508 0.03274789803731867
-0.5173921823020624 -0.8553731115274209 0.02534106881343275
-0.4900227383530442 -0.871479610386552 0.02002509868856951
-0.4647440964955299 -0.8852893855016127 0.01660206886896329
-0.4445812284546104 -0.8956124553775927 0.01502867520136706
0 0 0
0 0 0
0 0 0
-0.3356315604539307 0.9418734603467861 0.01502798461636736
-0.3646571266381622 0.9310006207415837 0.01621801994031496
-0.3862799873383418 0.9221882191742843 0.01888543878367288
-0.4082460900422661 0.9125714867910831 0.02341818654621101
-0.4315351885047617 0.9015922547065048 0.03014609983729382
-0.456588236617666 0.8888042894821083 0.03942229293907501
-0.4838279620715418 0.8736413427769325 0.05158786008952154
-0.5136363820925204 0.8553908885062154 0.06696338440859331
-0.5463279249746384 0.8331624631985959 0.0858260351510743
-0.5821165928840957 0.8058523541450467 0.1083616888383397
-0.6210578510245305 0.7721219287991407 0.1345915032544272
-0.66295977764878 0.7304095679997999 0.164274758238218
-0.7072682864429755 0.6790017758456761 0.1967947138274674
-0.7529434777739289 0.6161932268298064 0.2310455073936112
-0.798361768201045 0.5405598158545636 0.265355558747468
-0.8412985696208718 0.4513417847490405 0.2975017816642873
-0.8790564972751336 0.3488779953202801 0.3248750821156879
-0.90878291006544 0.2349584387823671 0.3448306169961455
-0.9279523796323196 0.1129136473886543 0.3551828956581458
-0.9348908753586795 -0.01269921936223619 0.3547080221797515
-0.929151368745106 -0.1367972771489979 0.3434592245430534
-0.9115842325776798 -0.2546454651798559 0.3227535808927557
-0.8840806499906616 -0.3625923543498931 0.2948358676943668
-0.8491133908759446 -0.4584416022488403 0.2623694851972511
-0.8092583701221039 -0.5414247488153147 0.2279476513535262
-0.7668354606077177 -0.6119002224757071 0.1937562749660739
-0.7237169981935266 -0.6709521231867257 0.1614216680528829
-0.6812808114119459 -0.7200214602634979 0.1320058815428328
-0.6404549810893471 -0.760633096418273 0.1060882172109307
-0.6018038989574913 -0.7942268691463341 0.08387936293017909
-0.565620453802796 -0.8220735946239224 0.06533381407832436
-0.5320046082800888 -0.8452494334101448 0.05024432394387959
-0.5009204088197754 -0.864644861909495 0.03831457687797951
-0.4722339101098704 -0.880989041418909 0.0292137474852859
-0.4457484985175541 -0.8948724264880499 0.02261893854130039
-0.4212378244415294 -0.9067667479901214 0.01824171042381166
-0.3979505038447427 -0.9172709427167216 0.01579285082851237
-0.3684793941981009 -0.9295163844399215 0.01490728376117332
0 0 0
0 0 0
-0.3053944956286858 0.9521122160942356 0.01471495850567593
-0.3206352215783029 0.9470552150806563 0.0167174840201466
-0.3385387374263921 0.9407318714919108 0.02037324768098359
-0.3580213581702649 0.9333491143799366 0.02607945129994696
-0.3791469685586675 0.9247017366754757 0.03426768772664972
-0.4022067320300698 0.9144235083159512 0.04538052609697522
-0.4275937611837771 0.9019861239591318 0.05987159244493059
-0.4557320087503675 0.8866757538230231 0.07819490893100356
-0.4870298278994005 0.8675518615754281 0.1007755635721722
-0.521833044165831 0.8433968088121622 0.127953495075682
-0.5603555874154923 0.8126718759023346 0.1598938328067043
-0.6025748067006247 0.7735033165086246 0.1964592112369958
-0.6480882165060206 0.7237339553297482 0.2370460409473292
-0.6959433163171381 0.6610880166475102 0.2804024513419313
-0.7444771052445258 0.5834984288967261 0.3244740717557918
-0.791236135221084 0.4896173021903374 0.366360854508581
-0.8330758935296692 0.3794511149166402 0.4024939838162324
-0.8665257433034496 0.2549361296522039 0.4291161917131046
-0.8884156541448065 0.1201613108379811 0.4430337287929135
-0.8966035025603818 -0.01902150705426913 0.4424255208120786
-0.890515007156062 -0.1560100200697445 0.4273685712212309
-0.8712449193161368 -0.2847445533926578 0.3998159950265039
-0.8411839766134256 -0.4007646558854188 0.3630388520280779
-0.8033728448358129 -0.501670826538787 0.320809061562018
-0.7608653981928968 -0.5869772822085244 0.2766613742535416
-0.7162923364968042 -0.6575963499380592 0.2334359210235005
-0.6716681404184414 -0.7152383989877781 0.1931215724879849
-0.6283844225904461 -0.7619132172325094 0.1569116530155668
-0.5873047879671571 -0.7995981058043888 0.1253632929724067
-0.5488926503708393 -0.8300595849728964 0.09857963158532144
-0.513331797154422 -0.8547852726687147 0.07637148459262473
-0.48062286170747 -0.8749817548683788 0.05838316068502558
-0.4506542448688637 -0.8916045070141344 0.04418319424572525
-0.4232568933724578 -0.9053965270093651 0.03332763256031208
-0.3982628780335037 -0.9169194549764961 0.02540458750059135
-0.3755927004630703 -0.9265676085394697 0.02006464961831996
-0.3553997467643895 -0.9345592038905448 0.01703274561772234
-0.338981185971636 -0.9406563028564758 0.01604604168162269
0 0 0
0 0 0
-0.2629862638246229 0.9646744829948423 0.01553598719743359
-0.2734252087454719 0.9617275540697913 0.01785404619213547
-0.2879137938337381 0.9573988473354805 0.02220572991271502
-0.304547025481624 0.9520577391077242 0.0289339018347499
-0.3229766442658953 0.9456236395889265 0.03849700649833392
-0.3433728276239836 0.9377911444594556 0.05140885743657447
-0.3661062687840175 0.9280682083941025 0.06823196117073735
-0.3916341593640771 0.9157516593625332 0.08956329378690162
-0.4204440064812692 0.8998726022093282 0.116000591407933
-0.453003704390661 0.8791247308125341 0.1480788691276619
-0.4896900656701392 0.8517900859056464 0.1861646828397518
-0.5306767915756539 0.8156875664174833 0.230295325343119
-0.5757702831882571 0.7681883704878709 0.2799557258648283
-0.624196062326512 0.7063664062162933 0.3338049968846404
-0.6743685680397704 0.6273676829204438 0.3894057329663017
-0.7237262973703745 0.5290611579517494 0.4430739640752114
-0.7687681322742712 0.4109319465252987 0.4900311154655965
-0.8054364078120196 0.2749784124122371 0.5250324425005706
-0.8298877104665914 0.1261610984115895 0.5434793144767327
-0.8394593231845888 -0.02805659175770222 0.5426977725930088
-0.8334182346336787 -0.1791512637848802 0.5227990731288287
-0.8131060389739156 -0.3194314985016834 0.4866436963006072
-0.7814223012902065 -0.4435315520064829 0.4389293216692611
-0.7419558474435879 -0.5489533405921597 0.3849048587598956
-0.6981773886398962 -0.6357036587751501 0.3292858821933641
-0.6529404135665233 -0.7054629852895045 0.2756642753749524
-0.6083111348684124 -0.7607279505165981 0.2263858398794415
-0.5656210863111842 -0.8041689648725545 0.1827157974997219
-0.5256200819338614 -0.8382514921621682 0.1451136291178002
-0.4886452253118255 -0.8650679533934129 0.1135045364365962
-0.4547649812874088 -0.8863028939881136 0.08749852514732297
-0.4238871774105679 -0.9032668643832864 0.0665479716752263
-0.3958362220275705 -0.9169560590097299 0.05005268400679572
-0.3704146201429015 -0.9281121914375706 0.03742685251713436
-0.3474748677884075 -0.9372669126271344 0.02814161953100465
-0.3270537571674101 -0.9447552983352253 0.02175468202937862
-0.3097178044058589 -0.9506594112235902 0.0179322470992883
-0.297643589415071 -0.9545359907093769 0.0164114630846941
0 0 0
0 0 0
-0.2129345444662889 0.9769178606756677 0.01704034230319755
-0.2220266019866219 0.9748483394216229 0.01936241558219447
-0.2341231155447707 0.9719062027530128 0.02418056694598068
-0.247905460078905 0.9682630138379855 0.03177450072694572
-0.2632258150117758 0.9637938358071146 0.04258652805282757
-0.2803162483285112 0.9582029004889927 0.05718393495999711
-0.2995708095597616 0.951023452640356 0.07623465476884619
-0.3214745572136122 0.9415714732108863 0.1004851725370104
-0.346568597562637 0.928871028852618 0.1307242094707215
-0.3754130030538628 0.9115572335772703 0.1677154943677946
-0.4085250115729614 0.8877665595533248 0.2120798214309038
-0.44627230985197 0.8550383403813127 0.2641031274660655
-0.4887030127631207 0.810277513391904 0.3234497126412096
-0.5353041012641463 0.7498669120038181 0.3887790290790415
-0.5847100590100568 0.6700554965225864 0.4573180277141119
-0.6344441676367896 0.567747058136561 0.5245415866534711
-0.680858022990401 0.4416985570872075 0.5842385961203528
-0.7194823610277913 0.2938465226806393 0.6292847950478151
-0.7459019767421398 0.1301017612782375 0.6532256675946437
-0.7569566192992442 -0.04015383170305049 0.6522302862475964
-0.7517213209516249 -0.2060747673390256 0.6264568986713372
-0.7317113172396283 -0.358055686039703 0.5799954085318995
-0.7002202242916833 -0.4897868216704895 0.5194232443882579
-0.66123031812945 -0.5988386355925301 0.4518481547025534
-0.6184563018876034 -0.6859553176393504 0.3833759315056265
-0.5748161345323998 -0.7537967435603248 0.3183973631785905
-0.5323085740639312 -0.8057758555421667 0.2595628105166705
-0.4921329055014868 -0.8452761272911319 0.2081188889898515
-0.4548944779042874 -0.8752509475852963 0.1643374355502297
-0.4208033580314149 -0.8980912729553914 0.1278929212695103
-0.3898299048843419 -0.9156422802427248 0.09814203936014301
-0.3618136748636858 -0.9292841059530984 0.07430958958697759
-0.3365363014701118 -0.9400274996493458 0.05560231736012877
-0.3137743392291135 -0.9486001135660967 0.04127333986632267
-0.293353230615972 -0.9555125075960834 0.03065501451012801
-0.2752418954754096 -0.9610956920457103 0.02317260680804124
-0.2598059538820622 -0.9654864720858066 0.01835043723550074
-0.2486761660263556 -0.9684569322232517 0.01585354468753679
0 0 0
-0.122347105685488 0.9923328394862073 0.01751346361016171
-0.152183851132889 0.9881885299362066 0.01798623798576281
-0.1663199142094091 0.9858563042742367 0.0206163396391708
-0.1774339700840714 0.9837904867018368 0.02595119525507866
-0.1884536809034003 0.9814817493054201 0.03433345211788443
-0.2003010572744726 0.9786420392802745 0.04625197734230586
-0.2134839735699909 0.9749550448296542 0.06234784350700219
-0.2284598461957254 0.9699745864106079 0.08339904312277854