# OOMMF: rectangular mesh v1.0
# Segment count: 1
# Begin: Segment
# Begin: Header
# Title: 
# Desc: time = 4.12e-09
# Desc: stepsize = 2.9605072522488544e-14
# Desc: step = 26366
# meshunit: m
# valueunit: (none)
# valuemultiplier: 384000.0000000001
# xmin: 0
# ymin: 0
# zmin: 0
# xmax: 9.357999999999999e-08
# ymax: 9.357999999999999e-08
# zmax: 2.3395e-08
# ValueRangeMaxMag: 1
# ValueRangeMinMag: 0
# meshtype: rectangular
# xbase: 1.16975e-09
# ybase: 1.16975e-09
# zbase: 1.16975e-09
# xstepsize: 2.3395e-09
# ystepsize: 2.3395e-09
# zstepsize: 2.3395e-09
# xnodes: 40
# ynodes: 40
# znodes: 10
# End: Header
# Begin: Data Text
0 0 0
0 0 0
0 0 0
0 0 0
0 0 0
0 0 0
0 0 0
0 0 0
0 0 0
0 0 0
0 0 0
0 0 0
0 0 0
0 0 0
0 0 0
0 0 0
-0.9868498384879322 0.1611325051357237 0.01279500156419533
-0.9914331560341025 0.1298864562108945 0.01377699565339352
-0.9960466278908829 0.08765954303102109 0.01438469960733561
-0.999044899165895 0.04117984121928558 0.01461198575693833
-0.9998718209704077 -0.00649308994032375 0.01463493807118373
-0.9984815805703022 -0.05309168221566637 0.01469035538513224
-0.9953163292905921 -0.09549291608627929 0.01505017025950992
-0.9917969340928231 -0.1268323806211027 0.01588674762371032
0 0 0
0 0 0
0 0 0
0 0 0
0 0 0
0 0 0
0 0 0
0 0 0
0 0 0
0 0 0
0 0 0
0 0 0
0 0 0
0 0 0
0 0 0
0 0 0
0 0 0
0 0 0
0 0 0
0 0 0
0 0 0
0 0 0
0 0 0
0 0 0
0 0 0
0 0 0
0 0 0
0 0 0
-0.9282951066878804 0.3715415381492828 0.01500267739442679
-0.9395304544182576 0.3420832317165284 0.0161736761126838
-0.9535421016357872 0.3008026669739653 0.01658963379207135
-0.967620068306733 0.251897412575375 0.01609648868244825
-0.9812678229871388 0.1920481102215909 0.01519812259446177
-0.9896285438067058 0.1427970373804077 0.01563174329359548
-0.9954650863330695 0.0937488004643183 0.01613766722284896
-0.9989140213407188 0.04360717771811773 0.016407072266987
-0.9998395355579908 -0.007065568843902879 0.01646149665409921
-0.9982157057539278 -0.05740729565826113 0.0164258086982777
-0.994142001771633 -0.1068278684026462 0.01641605452101942
-0.9875288453019687 -0.1565894501600412 0.01632555650310203
-0.9760397330717792 -0.2170543082331122 0.01529270226659924
-0.9636377201302863 -0.2668598756264442 0.013716818973152
-0.9509544609545338 -0.3090643563547438 0.01283887930076751
-0.9406348085780804 -0.3391669956032729 0.0131112922600057
0 0 0
0 0 0
0 0 0
0 0 0
0 0 0
0 0 0
0 0 0
0 0 0
0 0 0
0 0 0
0 0 0
0 0 0
0 0 0
0 0 0
0 0 0
0 0 0
0 0 0
0 0 0
0 0 0
0 0 0
0 0 0
0 0 0
-0.879134348910198 0.4763690065275634 0.01397734546271478
-0.8941672474576585 0.4474816380770718 0.01500390475358393
-0.9159535396401103 0.40097203373205 0.0158284991561468
-0.9333647060355174 0.3585209903906759 0.01711797232503328
-0.9496042701069336 0.3129298145656828 0.01807377521617658
-0.9645891878823134 0.2631032391803811 0.0185575901811048
-0.9777760183167497 0.20879961013727 0.01888864238548736
-0.9876826572983038 0.155248753760552 0.01951391626394608
-0.9946311860659963 0.1015126345494149 0.02009947093298753
-0.9986751204470571 0.04723015833133063 0.02042831231533799
-0.9997634474488369 -0.007398558498224498 0.02045263986298318
-0.9978718184865961 -0.06199591310720568 0.02020743992339127
-0.9930128176241099 -0.1163469635591505 0.0197212602232108
-0.9851263250057407 -0.1707876386999975 0.01891312369659204
-0.9739198178304675 -0.2262100763330585 0.01758379374482247
-0.9606408486324579 -0.2773315688988177 0.01601127199292154
-0.9458441791361278 -0.3242824485701199 0.0148216849133854
-0.9296940191750903 -0.3680559645301965 0.01427717352326037
-0.909356535171614 -0.4157828362447024 0.01397587295977628
-0.8951843243180426 -0.4454730991484272 0.01409763917628316
0 0 0
0 0 0
0 0 0
0 0 0
0 0 0
0 0 0
0 0 0
0 0 0
0 0 0
0 0 0
0 0 0
0 0 0
0 0 0
0 0 0
0 0 0
0 0 0
0 0 0
0 0 0
0 0 0
-0.8417935969807785 0.5396085816299793 0.01435683507756498
-0.8630218810970886 0.5049421078653198 0.01505657504780787
-0.8837633386158512 0.4676422614165496 0.01652503118846062
-0.9053480964202022 0.424279435449469 0.01821496535806639
-0.9252718046733235 0.378772206984572 0.02009235408326377
-0.9436019068225864 0.3303607960407038 0.02184458468662064
-0.9601052016075452 0.2786638561182728 0.02333360536713823
-0.9743149568909171 0.2238400001466898 0.02461745545298919
-0.9855447620040362 0.1674444945477116 0.02576554544481842
-0.993583918857124 0.1099157391722747 0.026636938088521
-0.9983024149291539 0.05155910143370985 0.02709146371031274
-0.999607467904736 -0.007236094259355163 0.02706564333157019
-0.9974640825253519 -0.06603103197002337 0.02655761451695996
-0.991900045256214 -0.1244171478116209 0.02558658928308754
-0.9829926245492747 -0.182048636715742 0.02416182840076566
-0.9709055771279418 -0.2384200206462611 0.02232160515945015
-0.9562373487127253 -0.2918876224028212 0.02029159468561575
-0.9394480964288541 -0.3421959984848077 0.01841664294021718
-0.9208167678304743 -0.3896293426908763 0.01689542531319663
-0.9003757207210519 -0.4348289757574819 0.01572651829697344
-0.8805573542402879 -0.4737009705632836 0.01503783165043025
-0.860346112295487 -0.5094954221052377 0.01479803743225624
0 0 0
0 0 0
0 0 0
0 0 0
0 0 0
0 0 0
0 0 0
0 0 0
0 0 0
0 0 0
0 0 0
0 0 0
0 0 0
0 0 0
0 0 0
0 0 0
-0.7682075951850469 0.6400160871615607 0.01537851990317668
-0.7886749270838144 0.6146005450238005 0.0160632949853708
-0.8198008533314994 0.5724181479090376 0.01624884061500548
-0.8456501720293501 0.5334453941069952 0.01765780430186131
-0.8698376663455659 0.4929375229978657 0.01987542772440196
-0.8933262925923224 0.448844087826311 0.02251932029664424
-0.9154921085174688 0.4015356432433616 0.02536388076337863
-0.9359838044706654 0.3509141563511137 0.02817042138493753
-0.9543998049602157 0.2969420225146126 0.03076438780202616
-0.9702466269333437 0.2398529282733654 0.03304626640273615
-0.9829825375685692 0.1803484621851366 0.03492510590839312
-0.9922278024609621 0.1190335817353601 0.03626285210433716
-0.9977195062935805 0.0564952288265621 0.03693339790931592
-0.9992980846603537 -0.006648735741435972 0.03686641163971329
-0.996912370028926 -0.06975571316514514 0.03605366783187406
-0.9906239021437123 -0.1321798479926588 0.03453653552691351
-0.980609092297222 -0.1932776345620517 0.03239697643478417
-0.9671752823938052 -0.2523599713560295 0.02977277252200238
-0.9508048182648443 -0.3086215257222475 0.02688775604672186
-0.931977948928829 -0.3617192242491823 0.02400636413499904
-0.9111242975282871 -0.4115792905102307 0.02133077768577492
-0.8886566457686477 -0.4581806944932446 0.01896884616690571
-0.8652637577172615 -0.5010293960512124 0.0169756847744397
-0.8401786724253683 -0.5420957747639359 0.01523054117992446
-0.8101014677324767 -0.5861385777183357 0.01331088607167946
-0.7901671508432592 -0.6127643359862547 0.01247967433750315
0 0 0
0 0 0
0 0 0
0 0 0
0 0 0
0 0 0
0 0 0
0 0 0
0 0 0
0 0 0
0 0 0
0 0 0
0 0 0
-0.721196728432217 0.6925815673451331 0.0143544931093128
-0.7463218002720339 0.6654050781166775 0.01548717066634357
-0.7717913019552679 0.6356464340096395 0.01708207121578338
-0.799884926483051 0.5998529682189161 0.01898738802889568
-0.8271285787842424 0.5615944190937877 0.02168000463723094
-0.8535871129187406 0.5203449036886281 0.02510422005005057
-0.8792863263928451 0.4754081617912487 0.02902819182864393
-0.9038064116238305 0.426651286068962 0.03320618019820377
-0.9266673139366295 0.3740188730973077 0.03738411224694019
-0.9473344186795876 0.317568569581648 0.04132436084047186
-0.9652227886757713 0.2575590682666078 0.04481399976127876
-0.9797416989718418 0.1945135608076551 0.04765163121756883
-0.9903895109338106 0.1290894514730339 0.04964403439164158
-0.996788095701623 0.06204370169420324 0.05063666011510042
-0.998705056935253 -0.005792480298078674 0.05054360913062245
-0.9960693178580443 -0.07354911206181369 0.04936032958488631
-0.9889770696388245 -0.1403572138847345 0.04716151226496148
-0.9776871664479078 -0.2053864212568226 0.0440933387982338
-0.9626074155469901 -0.2678758638412445 0.04036688129210456
-0.944266945367306 -0.3271790616098595 0.03624634506799801
-0.9232322198379886 -0.3829067522472414 0.03201073783106487
-0.9000608458125851 -0.4348701201522119 0.02790076045440871
-0.8752916773791286 -0.4829949487755612 0.02409064067484059
-0.8494329770162449 -0.5272908978273146 0.0206863874512565
-0.8225964849149368 -0.5683493882095518 0.0177199302317423
-0.7948585359840942 -0.6066029700871171 0.01525596456177641
-0.7696381526127364 -0.6383315364941538 0.01378272686613741
-0.7450065577275923 -0.6669221363315219 0.01341987384002713
0 0 0
0 0 0
0 0 0
0 0 0
0 0 0
0 0 0
0 0 0
0 0 0
0 0 0
0 0 0
0 0 0
-0.6678203536621731 0.744195210635657 0.01376458141318301
-0.6946955178009313 0.7191505839394967 0.01485177318626785
-0.7214813375993944 0.6922289316104775 0.01684594126801212
-0.7489248448152269 0.662364827364796 0.01960643487460148
-0.7774720678925453 0.6284938593491252 0.02307926357860946
-0.8061847865126522 0.5910307391180483 0.027363395496951
-0.8347158846561279 0.5497264554397177 0.0324070376989565
-0.8627551616432614 0.5041900132213566 0.03802580210537883
-0.8898183962216419 0.4541920047278346 0.04396412841005107
-0.9153145075141269 0.3996335871790908 0.0499234246876428
-0.9385740662565907 0.3405718187533054 0.05558379639458265
-0.9588766506465657 0.2772736915772011 0.06062069616867304
-0.975501797863301 0.2102561106711982 0.06471947381497985
-0.9878044935884532 0.1402596661559882 0.0675981397397132
-0.9952791408879432 0.06821053040327014 0.06904169215381233
-0.9976095141676525 -0.00483367577143731 0.06893397435747366
-0.9947002144892336 -0.07775288782816529 0.06727534265578264
-0.986685405885589 -0.1494404355958342 0.06418306646863847
-0.9739135740199828 -0.2188767917893577 0.05987737766152864
-0.9569103687648975 -0.2851931109790167 0.05465743865511526
-0.9363231235099005 -0.3477223923986538 0.04886866281391422
-0.9128498632117443 -0.4060394713117749 0.04286111257484665
-0.8871855693438919 -0.4599310589952931 0.0369484305407164
-0.8599882899562717 -0.5093478754760998 0.03138284381745321
-0.8318435874431666 -0.5543842218466846 0.0263511023892514
-0.803192459588309 -0.5953135788540724 0.02199126400274874
-0.7745183506632629 -0.6322823099357212 0.01845006851497034
-0.746872706664401 -0.6647759598556096 0.01593998864002119
-0.7200295476216518 -0.693791484798587 0.01451985443215807
-0.693516987638206 -0.7203032221624426 0.01405190377247197
0 0 0
0 0 0
0 0 0
0 0 0
0 0 0
0 0 0
0 0 0
0 0 0
0 0 0
-0.6136533844737969 0.7894707590543513 0.01286251616134505
-0.6392314164608418 0.7688841425869496 0.01415526360746889
-0.6656952473101415 0.7460454782739212 0.01630895630398406
-0.6932424362038776 0.7204416558798887 0.019461375058206
-0.7218970780726515 0.691597032176386 0.02362527788160339
-0.7516085010870653 0.6589807303108818 0.02879337028885592
-0.7819720322439895 0.6223323074846698 0.0349605470353524
-0.8126233164940553 0.5812711753575153 0.04203767582413469
-0.8431416750988969 0.5353776388085413 0.04982870232322929
-0.8729641967168845 0.484318669169908 0.05804255287229802
-0.901389963573469 0.4279008501945409 0.06630984822640529
-0.9276030010886858 0.3661236983215119 0.07420316636533512
-0.9507111338905561 0.2992401536317405 0.08126297035541462
-0.9698097796823456 0.2278033913771572 0.08703221305669355
-0.9840688596504551 0.1526727716480813 0.09110161504356191
-0.9928238089073699 0.07497933293904281 0.09316106535821747
-0.9956541084285637 -0.003948788573731026 0.09304463143094993
-0.9924340073227738 -0.08269211270682991 0.09075657334508329
-0.9833450967637887 -0.1598595325197188 0.08647167474492293
-0.9688486249906823 -0.2342015772938874 0.08051063933865514
-0.9496242792179125 -0.3046986914933729 0.07329690117655782
-0.92648878105534 -0.3706129820832428 0.06530356873828567
-0.9003106613662472 -0.4314994259644785 0.05699963528476405
-0.8719408172899834 -0.4871726873771175 0.0488055715818651
-0.8421637114224771 -0.5376558337781254 0.0410668670276559
-0.811663044945122 -0.5831327616832932 0.03404825578540147
-0.7810058924634115 -0.6238980471576538 0.02794678318331944
-0.7507144649002507 -0.660229152743364 0.0229185090551236
-0.7213578376128914 -0.6922993418368201 0.0190916580411074
-0.6931883487704218 -0.7205671123568338 0.01652118998951483
-0.6664084722688172 -0.745431919111106 0.01519875187883259
-0.6410697107242815 -0.7673337623465336 0.01511698233772522
0 0 0
0 0 0
0 0 0
0 0 0
0 0 0
0 0 0
0 0 0
0 0 0
-0.5870174550347421 0.8094580613334629 0.01371693941103448
-0.6075043512014928 0.7941618994726973 0.01566335523349385
-0.6332166157143297 0.7737447183598078 0.01886341415524991
-0.661201765325481 0.7498449054951403 0.02334187724780635
-0.6907934607385849 0.7224648794690961 0.02913576040732643
-0.7217528916641053 0.6912007595493901 0.03625290847432884
-0.7538041320699872 0.6555798140763911 0.04465912952328405
-0.7866105242373954 0.6150627549993359 0.05423735402466082
-0.8197171947830397 0.5690957181158126 0.06475943328404925
-0.852499190060963 0.5171923976369085 0.07587591694330661
-0.8841481536820898 0.4590123347178603 0.08711899286269548
-0.9136877555824656 0.3944445659914425 0.09791919964184156
-0.9400190400283298 0.32369423196773 0.107639437823868
-0.9620012030541552 0.2473531538744834 0.1156291597768656
-0.9785647124934751 0.1664277166821446 0.121296820166605
-0.9888389787529895 0.08230598000477303 0.1241901757555658
-0.9922682983879114 -0.00334171665183122 0.1240663408994453
-0.9886884177295422 -0.08871598917576767 0.1209325676235277
-0.9783444133194721 -0.172065824624628 0.1150459078925637
-0.9618464187460414 -0.2518528253481435 0.1068719846806072
-0.9400767006915742 -0.3268699743810773 0.09701451780510964
-0.9140728036993834 -0.396297804250215 0.08613338425724701
-0.884913347173139 -0.4596988565485951 0.07486874703603112
-0.8536269377809088 -0.5169648216220003 0.06378420102283508
-0.8211313923444865 -0.5682416768044501 0.05333510334546387
-0.7882014833099573 -0.613852267010395 0.0438613268629826
-0.7554664903537323 -0.6542194688101574 0.03559871602136045
-0.7234491783038104 -0.6897808276696827 0.02870010785465641
-0.692618275232172 -0.7209294206906458 0.02325285352511603
-0.663417872913834 -0.7480005005052642 0.01928670895611346
-0.6367285492598656 -0.7709048974504283 0.01680457212699576
-0.6157074284336922 -0.7878161339811977 0.01581460118020921
0 0 0
0 0 0
0 0 0
0 0 0
0 0 0
0 0 0
0 0 0
-0.5103145106526745 0.859852610632764 0.01525084277477842
-0.5429514215756839 0.8396178062865992 0.0156746028792578
-0.5692465916805768 0.8219660278964266 0.01817049378023261
-0.5962590062302745 0.8024779694683279 0.02245675861013828
-0.624897052034737 0.7801892350765649 0.02843293563702917
-0.655274877086096 0.7545269911999695 0.03610893255861602
-0.6873535498640447 0.7248964678504946 0.04549954271388232
-0.7209802204060873 0.6906426772817787 0.05657043485996989
-0.7558763076742007 0.6510479153727268 0.06919262522584169
-0.7915938175090432 0.6053700563711756 0.08310428948386873
-0.8274679640849999 0.5529154890412127 0.09788375958933065
-0.8625900929602871 0.4931362915684526 0.1129377238343185
-0.8958119581065705 0.4257484872061648 0.1275114165670414
-0.9257927960284847 0.3508603586486603 0.1407291993535591
-0.9510989533825546 0.2690847570978998 0.1516712707541318
-0.970354145472626 0.1815981599697203 0.159483355431535
-0.9824188654731461 0.09011177613088504 0.163502417612076
-0.9865596712964217 -0.003261201701088788 0.1633688450560896
-0.9825630239215668 -0.09622600508638873 0.1590926144332924
-0.9707606838980684 -0.1865661697747001 0.151052172752835
-0.9519610620849048 -0.2723798027078054 0.1399263354448927
-0.9273104059504849 -0.3522395882102258 0.1265807391092223
-0.8981251507537721 -0.4252533386977195 0.1119411073286154
-0.8657362111308783 -0.4910341478318974 0.09688280755507402
-0.831371854985151 -0.5496102888408017 0.08215454423754889
-0.796087394551756 -0.6013105840074985 0.06834063064061929
-0.7607372863340505 -0.6466520430345399 0.05585621201227266
-0.7259817969070648 -0.686242383395019 0.04496467270994981
-0.6923195357362479 -0.720702194661189 0.03580512600859859
-0.6601239286535819 -0.7506189298736381 0.02841867228275421
-0.629655904121219 -0.7765405210558257 0.02276535885148256
-0.601032358213747 -0.7990053381482036 0.01872362119613402
-0.5736197126665468 -0.8189649468733795 0.01602626073138845
-0.540857899105234 -0.8409945978847955 0.01417107279154649
0 0 0
0 0 0
0 0 0
0 0 0
0 0 0
-0.4462340806185654 0.8947974914115734 0.0145806261202517
-0.4744937530219928 0.880122126891672 0.01551515706603169
-0.5018657916685692 0.8647693040666321 0.0174578892479268
-0.5281800677115748 0.8488680759081541 0.02118503661041241
-0.5553345639670276 0.8311926466242031 0.02687575601548251
-0.5841512967358713 0.8109066891670659 0.03460641538656543
-0.6149438445702903 0.7873166723239042 0.04445813205617927
-0.6478182346505164 0.7596973097369163 0.05649364949071826
-0.6827359791988861 0.7272355014665522 0.07071144259615905
-0.7194992482967388 0.6890230546548058 0.0869946081926206
-0.7577014084784923 0.644089397057017 0.1050591461436709
-0.7966672778916033 0.5914761366468547 0.124407508270578
-0.8354051063660407 0.5303552570279219 0.1442969493800571
-0.8725915004955629 0.460189393193725 0.1637369709469818
-0.9066125431874029 0.3809192382022077 0.1815330011395136
-0.9356811157752075 0.2931414388236037 0.1963897818780035
-0.958034089173637 0.1982200086982207 0.2070736876885056
-0.9721832002586391 0.09827085594094763 0.2126091813810115
-0.9771614261810381 -0.004014894563387931 0.2124604146787919
-0.9726918878917681 -0.1056891067780878 0.2066405186259406
-0.9592240649438608 -0.2039288152874011 0.1957095591126106
-0.9378282831722278 -0.2963771791695455 0.1806617805451235
-0.9099894438631391 -0.3813584128644545 0.1627420443375306
-0.8773677685717436 -0.4579361444487168 0.1432490358741821
-0.8415886637007507 -0.5258397087419131 0.1233739106967293
-0.8040970348161605 -0.5853130551916343 0.104098924211987
-0.7660821764863083 -0.6369420141162785 0.08615665687281084
-0.7284606985478981 -0.6814983579761347 0.07003569623370622
-0.6918986143287849 -0.7198185523082091 0.05601392008082789
-0.656853319172446 -0.7527216466637756 0.04420225939829805
-0.6236139467460212 -0.7809669906648169 0.03458619545122241
-0.5923152435684249 -0.8052518649449526 0.02705709221540374
-0.5628812750341865 -0.8262599060469467 0.02142983609780959
-0.5347402067587851 -0.8448362339852952 0.01745419780783303
-0.5062587135035476 -0.862253061944823 0.01489201693894491
-0.4777234584974228 -0.8784011953488916 0.01384330924667704
0 0 0
0 0 0
0 0 0
0 0 0
-0.4165126837805553 0.9090146473923401 0.01447601727335887
-0.4355918600425736 0.8999978995951842 0.01623305851980928
-0.458992754376376 0.8882261629181577 0.01949191980472259
-0.4838682983904424 0.8747938345047258 0.02464177195852661
-0.5102932025074072 0.8594059391805634 0.03197310081783598
-0.5386826030622013 0.8414758838454987 0.04170599554701152
-0.5693575575547811 0.8203125352142645 0.05403069706749519
-0.6025203098849412 0.7951068399938752 0.0690969548613264
-0.6382456476889562 0.7649040372058119 0.08697302496955278
-0.6764413187092057 0.7285960194706335 0.1075870938100796
-0.716780444015084 0.6849484560548746 0.1306575968919606
-0.758618398009493 0.6326771991437421 0.1556203324927049
-0.8009137302764248 0.5705880652452058 0.1815666722017967
-0.8421814024779608 0.4977869846149446 0.207216319985216
-0.8805153167537201 0.413947201706754 0.2309556043079345
-0.913717165959731 0.3195854144054375 0.2509703240023047
-0.9395482965476081 0.2162603201217461 0.2654815857933042
-0.9560759895124366 0.1065903673932074 0.2730516358800954
-0.962029735179432 -0.005978370757116179 0.2728791815321974
-0.9570512400961677 -0.1176334980552792 0.2649816672256133
-0.9417463357008731 -0.2247617491491165 0.2501919169625743
-0.9175241342583718 -0.3244427453342937 0.2299703634240108
-0.8862929568761668 -0.4147344084132032 0.2061071688948518
-0.8501230249272251 -0.494712606429657 0.1804169602009727
-0.8109690006703067 -0.5643201915079136 0.1545056678839816
-0.7704966995987956 -0.6241217830464793 0.1296411810893678
-0.730012146467412 -0.6750507073115865 0.1067183609702107
-0.6904658462816839 -0.7181999679467769 0.08628859229218047
-0.6524999163880474 -0.7546753472273339 0.06862200376624054
-0.6165107175444594 -0.7855077772108775 0.0537779424489461
-0.5827063558366824 -0.8116138251022504 0.04166895451564436
-0.551144716113667 -0.8337915279135937 0.03211214535810018
-0.5217468398840719 -0.8527377897364139 0.02486960044793249
-0.4943285681121792 -0.869052106523986 0.01969017253313629
-0.4690317292752534 -0.8830294148138065 0.01637954537377945
-0.4488769676867869 -0.8934695710150496 0.01488601862480614
0 0 0
0 0 0
0 0 0
-0.3398040383521136 0.9403973071209292 0.01364259063741141
-0.3687331244635139 0.9294174009526243 0.01480465230403754
-0.3903507172082779 0.9205011206577914 0.01743572317780101
-0.4123564137123899 0.9107593948790987 0.02189777864792571
-0.435715465623801 0.8996328786519757 0.02850818592253015
-0.4608570580425158 0.8866770957991797 0.0376098369782294
-0.4881913355624926 0.8713298059130876 0.04953371790175268
-0.5180870339574749 0.8528856609003401 0.06459005090365016
-0.5508447037461632 0.8304658401505135 0.0830457747143299
-0.5866641099111859 0.8029843569020091 0.1050778031402565
-0.6255869320097011 0.7691281061884205 0.1307017473858067
-0.6674097200870274 0.7273700320683176 0.1596781199234573
-0.7115721395153115 0.6760399702486899 0.1914028445236703
-0.7570374684202995 0.6134814019773811 0.224799557018359
-0.8021991038443614 0.5383165678349129 0.2582476923144571
-0.8448659148257681 0.4498162849909099 0.2895978171923848
-0.8823885365726989 0.3483175065131914 0.3163311321724808
-0.911968059456398 0.2355617429056938 0.3358942152085431
-0.9311233157057257 0.1147820649196307 0.3461711260662289
-0.938198990070278 -0.0095948826692361 0.3459632831062763
-0.9327325776172162 -0.1326181125047397 0.3352944599709689
-0.9155290756047404 -0.249651715828388 0.3154053463501708
-0.8884195317241762 -0.3570897964517308 0.2884399641538198
-0.8538196646582954 -0.4527275213484274 0.2569625880483479
-0.8142640199968207 -0.5357493082039736 0.2234877725907624
-0.7720510773562992 -0.606448534432665 0.1901507534495985
-0.7290494383088459 -0.665843610883364 0.1585534684179428
-0.6866454490468227 -0.7153195567510028 0.129753454801156
-0.6457823983215277 -0.7563588185607916 0.1043380640198914
-0.6070423382403572 -0.7903720547370285 0.08253250677428207
-0.5707357155659505 -0.8186117620509021 0.06430805555557496
-0.5369787986032034 -0.8421437530527099 0.04947392287818162
-0.5057505113832262 -0.8618535060246579 0.03774856803389563
-0.4769306544226922 -0.8784685134865486 0.02881356771861942
-0.4503355138732039 -0.8925794917637665 0.02235566655891951
-0.4257508032240213 -0.9046595479264338 0.01809297929144844
-0.4024392948776468 -0.9153113411605949 0.01574047906434216
-0.3730359780523356 -0.9276965003800477 0.01494530900146427
0 0 0
0 0 0
-0.3096611579465897 0.9507527752080964 0.01338385943142023
-0.3249083913141018 0.945620513110932 0.01537473373753415
-0.3428667468763841 0.9391920497473183 0.01899177658450803
-0.3624486433215675 0.9316785326268497 0.02461895198083562
-0.3837085535169801 0.9228759195149329 0.03267695116398267
-0.4069276952515158 0.91241936538368 0.04359762046410075
-0.4324884372362907 0.8997834484149488 0.05782298518248569
-0.4608028555352859 0.8842601169768169 0.07579428642498307
-0.4922660519234042 0.8649192033474702 0.09792295851597475
-0.5272091624666168 0.8405601656722969 0.1245355647845576
-0.5658304710553153 0.8096705781338535 0.155786497905663
-0.6080921869262348 0.7704144794837277 0.1915343885600859
-0.6535801364357557 0.7206848927749262 0.2311845379401736
-0.7013381992526236 0.6582661646747592 0.2735148747572415
-0.7497135588858644 0.5811526590187529 0.3165298825357954
-0.7962815057021821 0.4880424651217748 0.3574217619487187
-0.837944822326352 0.3789490361835797 0.3927417761226755
-0.8712899404485329 0.2557543144786618 0.4188598456509545
-0.8931956418607889 0.122424876627964 0.432681978990945
-0.9015397274548533 -0.0153568546130927 0.432423735284062
-0.8957276819023164 -0.1511588600970883 0.4181183072864077
-0.8768001752217549 -0.2790428331128167 0.3916076480604944
-0.8470805018292769 -0.3945931088297414 0.3560209289981979
-0.8095508483561294 -0.4953827875960903 0.3149973296385186
-0.7672289803480102 -0.5808528141916098 0.2719737118911294
-0.7227337792575623 -0.6518267513586183 0.2297341301011901
-0.6780865494849259 -0.7099329081757443 0.190246937680366
-0.6346964687936361 -0.7571165533616675 0.1547091371788946
-0.5934487510729729 -0.7953101011201972 0.1236948782533456
-0.554828183797025 -0.8262521487503988 0.09732971360197992
-0.5190376202391058 -0.8514150825297858 0.07544737250112372
-0.4860939234499959 -0.8719987970526089 0.05771304465883224
-0.4558991980758516 -0.888957306087843 0.0437130317736005
-0.4282962245737156 -0.9030349792612422 0.03301772624740903
-0.4031276900753834 -0.9147959939206201 0.02522607780194852
-0.3803241144381352 -0.9246370835976516 0.01999578987880421
-0.360048899762658 -0.9327775406819714 0.01705430675788589
-0.3436052128398743 -0.9389756055082521 0.01613288472888736
0 0 0
0 0 0
-0.2673948293183689 0.9634812045396294 0.01428193798700056
-0.2778941244261425 0.9604684252287558 0.01659095380083098
-0.2924950821558581 0.9560385646783759 0.02090190810304568
-0.3092882439425692 0.9505692959066175 0.02754624908256485
-0.3279192094461695 0.9439820231233058 0.03697204479372582
-0.3485509979123113 0.9359721757665497 0.04968186837431248
-0.3715462152479272 0.926049468118918 0.06622531639493898
-0.3973527160428267 0.9135150247549204 0.08718439424808481
-0.4264469349049524 0.8974086950427625 0.1131399388890448
-0.4592835278312005 0.8764398733237614 0.1446090920763825
-0.4962238036472891 0.848916409310872 0.1819419322106697
-0.5374244285000188 0.8126965071077951 0.2251652082054806
-0.5826754089742119 0.7652065766470303 0.2737668037452078
-0.6311907405082868 0.7035905581155065 0.3264331104947995
-0.6813844119094578 0.6250708488369493 0.3807909100031902
-0.7307120586322926 0.5275793464023353 0.4332665699301547
-0.7757098733708481 0.4106194816310481 0.4792346332017667
-0.8123707466626034 0.2761304639119782 0.5136202263020799
-0.8368963466280877 0.1289228600962008 0.5319618418130898
-0.8466401723528517 -0.02375373466186909 0.5316353812980723
-0.8408438161377561 -0.1735882997523084 0.5126877988132721
-0.8207907423350755 -0.3130305055976922 0.4778226238493615
-0.7893148049441091 -0.4367502671940527 0.431545296350182
-0.7499560554716032 -0.5421935841434654 0.3789353931412796
-0.7061645641150682 -0.6292615312906331 0.3245944140399566
-0.6607986717122789 -0.6995206749698009 0.2720587082838589
-0.6159453911808183 -0.7553714373960796 0.2236632885595862
-0.5729632802679633 -0.7994150385140378 0.1806894453535526
-0.532628737096007 -0.834073437293774 0.1436249616900243
-0.4953017054259556 -0.8614154520076411 0.1124261519603467
-0.4610688731377694 -0.8831155406942673 0.08673197799969135
-0.4298521199013229 -0.9004824118150023 0.06601955034817047
-0.4014867282355764 -0.9145148705739363 0.04970873715785447
-0.3757839443986569 -0.9259591807989274 0.03722932481748948
-0.3526037704585943 -0.9353518045438473 0.02806390555412939
-0.331989927655676 -0.9430315118867522 0.0217774085640386
-0.314515684288508 -0.9490808809821599 0.01803789595984503
-0.3023646409919972 -0.9530482183002517 0.01657460323796973
0 0 0
0 0 0
-0.2175102592619529 0.9759288424772797 0.01588022470730639
-0.2266959553649729 0.9737956907709272 0.01819055956079195
-0.2389506911015799 0.9707600684736957 0.02296642503792811
-0.2529481369466318 0.9669997212611477 0.03047587728171947
-0.2685349345038419 0.9623905790750891 0.04115048308989309
-0.2859381262986921 0.95663684345266 0.0555458160235656
-0.3055466671279803 0.9492725398037737 0.07431607754366307
-0.3278398308584426 0.9396166781830571 0.09819136104029227
-0.3533515168608471 0.9267004732299366 0.1279411522831863
-0.3826323363294398 0.9091729539910703 0.1643077445716579
-0.4161870640207823 0.8851948435364394 0.2078903959259767
-0.4543675788659495 0.852344318290004 0.2589580397559482
-0.4972035480397123 0.8075835627567184 0.3171709649099151
-0.5441634021865135 0.7473716801723402 0.3812109172061725
-0.5938679471056747 0.6680453964034352 0.4483706165045478
-0.6438382887016694 0.5665860027006953 0.5142495109821236
-0.6904401619599528 0.4417793809628167 0.5728205315007698
-0.7292316623443488 0.2954981895232812 0.6171725873878072
-0.7558232312337947 0.1334753491805403 0.6410269684564278
-0.7670577262713518 -0.03516532127228585 0.6406136470192002
-0.7619803136888208 -0.1998286754556216 0.6159987841029702
-0.7420549830395856 -0.3510600405999422 0.5710615116080637
-0.7105286674186946 -0.4825634678142566 0.5121342717562384
-0.6713622132323558 -0.5918158274944627 0.4461242035249789
-0.6282782118304958 -0.6794210132192573 0.3790165897888803
-0.5842228097145182 -0.7479036821278836 0.3151567718911131
-0.5412307317602395 -0.8005730205597553 0.2572005710532252
-0.5005355822902837 -0.8407451294735427 0.2064261565980492
-0.462770702727094 -0.8713362380728581 0.1631454471277413
-0.428166807203239 -0.8947211566166146 0.1270717793690302
-0.3967084958483693 -0.9127417646948178 0.0975952883264032
-0.3682448161222266 -0.9267818117002319 0.07396775581794261
-0.3425637965698905 -0.9378587410052182 0.0554168494208165
-0.3194466874264023 -0.946707680526848 0.04121142467536985
-0.2987229916744689 -0.9538460991984943 0.03069516719079208
-0.28036589774851 -0.959610361401013 0.02330059380120564
-0.264746431999447 -0.9641395442928028 0.01855440310083844
-0.2535049281658417 -0.9671998604049129 0.01611463398119809
0 0 0
-0.1271376027573945 0.9917479302229653 0.01649463135589114
-0.1569478356561312 0.9874616855999799 0.01693506288451196
-0.1711857003446986 0.9850448834298758 0.01954568049766998
-0.1824904615897673 0.9828938205507683 0.02483885971350809
-0.1937721676977884 0.9804866113214449 0.03314139473663884
-0.2059452286751246 0.9775314878179963 0.0449305365011898
-0.2195138710490758 0.9737107811555944 0.06083563987015757
-0.2349335390778672 0.9685784572928137 0.08162110195667004
-0.2526989838637331 0.9614795416402474 0.1081679923151772