# OOMMF: rectangular mesh v1.0
# Segment count: 1
# Begin: Segment
# Begin: Header
# Title: 
# Desc: time = 2.1199999999999997e-09
# Desc: stepsize = 2.944723686466396e-14
# Desc: step = 13566
# meshunit: m
# valueunit: (none)
# valuemultiplier: 384000.0000000001
# xmin: 0
# ymin: 0
# zmin: 0
# xmax: 9.357999999999999e-08
# ymax: 9.357999999999999e-08
# zmax: 2.3395e-08
# ValueRangeMaxMag: 1
# ValueRangeMinMag: 0
# meshtype: rectangular
# xbase: 1.16975e-09
# ybase: 1.16975e-09
# zbase: 1.16975e-09
# xstepsize: 2.3395e-09
# ystepsize: 2.3395e-09
# zstepsize: 2.3395e-09
# xnodes: 40
# ynodes: 40
# znodes: 10
# End: Header
# Begin: Data Text
0 0 0
0 0 0
0 0 0
0 0 0
0 0 0
0 0 0
0 0 0
0 0 0
0 0 0
0 0 0
0 0 0
0 0 0
0 0 0
0 0 0
0 0 0
0 0 0
-0.9850750942763864 0.1717953373992817 0.01064991475245083
-0.9899667723834527 0.1408081501661823 0.01178365068500868
-0.9950133059483003 0.09894306843535028 0.01260119813474134
-0.9985173157756336 0.0528431731507231 0.0130678669868354
-0.9998956733114881 0.00552786074610809 0.01334485850568223
-0.9990758129075079 -0.04075606227508068 0.01365516206536417
-0.9964562561614191 -0.08289665805256746 0.01425039088879292
-0.9933587094079883 -0.1140420247505073 0.01526076780833026
0 0 0
0 0 0
0 0 0
0 0 0
0 0 0
0 0 0
0 0 0
0 0 0
0 0 0
0 0 0
0 0 0
0 0 0
0 0 0
0 0 0
0 0 0
0 0 0
0 0 0
0 0 0
0 0 0
0 0 0
0 0 0
0 0 0
0 0 0
0 0 0
0 0 0
0 0 0
0 0 0
0 0 0
-0.9250632336408279 0.3796292364048404 0.0118176407396831
-0.9364569694103169 0.3505378413714809 0.01309832849896352
-0.9507021063022075 0.3098038158909622 0.0136784769599537
-0.9650942742234977 0.2615596863605242 0.01340046014149182
-0.979201009993388 0.2024886959502577 0.01279492244181584
-0.9880110786038347 0.153795631919539 0.01345407590866967
-0.9943462228837375 0.1052334824194094 0.01419518280007639
-0.9983484710855198 0.05553076256912219 0.01471953428937817
-0.9998730792985709 0.005241791424201318 0.0150448966981538
-0.9988796806233905 -0.04478422498562691 0.01528910821955869
-0.9954534032269141 -0.09396989041428032 0.01556218813283674
-0.989511424648165 -0.1435920668925596 0.01576257644806037
-0.9788543243033399 -0.2040015230748759 0.01508609875952255
-0.9671590499769754 -0.2537950738725265 0.01383591434176059
-0.9550918943648498 -0.2960140489717449 0.01323465639581772
-0.9452260242012395 -0.3261289200371935 0.01370002511279029
0 0 0
0 0 0
0 0 0
0 0 0
0 0 0
0 0 0
0 0 0
0 0 0
0 0 0
0 0 0
0 0 0
0 0 0
0 0 0
0 0 0
0 0 0
0 0 0
0 0 0
0 0 0
0 0 0
0 0 0
0 0 0
0 0 0
-0.8755869494969977 0.4829502515385335 0.01032222889731595
-0.8906798383708115 0.4544869810479285 0.01144594153767432
-0.912577935558438 0.4087135723369308 0.01243894366428192
-0.9301513159229383 0.3669147328325643 0.01386031447093885
-0.9466187297357023 0.3220076143147527 0.01496919626721057
-0.961909986030513 0.2729185767654081 0.0156406275808021
-0.9755041103798348 0.2193841059343944 0.01619705823329429
-0.9858907638219128 0.1665188047922381 0.01705548185216195
-0.9933902394004015 0.1133825383921159 0.01789503427693183
-0.9980498796094809 0.05961615375303638 0.01850275717816767
-0.999808085194403 0.005412762588549565 0.01882803178935079
-0.9986267296899324 -0.04886131137485653 0.0189004497173823
-0.994504485985989 -0.1030023688560076 0.01874404875671031
-0.9873733907361465 -0.1573521857014957 0.01827777123081723
-0.9769454690976569 -0.2127863577084839 0.01730654161626715
-0.9643929956604111 -0.2639842475029877 0.01607690863999296
-0.9502664645304261 -0.3110667636356749 0.01520246526294885
-0.9347329969339727 -0.3550363121274102 0.01494796018864211
-0.915063412462644 -0.403032643104238 0.01495459008573444
-0.9013297363169057 -0.4328639335121324 0.01528141012147444
0 0 0
0 0 0
0 0 0
0 0 0
0 0 0
0 0 0
0 0 0
0 0 0
0 0 0
0 0 0
0 0 0
0 0 0
0 0 0
0 0 0
0 0 0
0 0 0
0 0 0
0 0 0
0 0 0
-0.838234377432199 0.5452108459445116 0.01040490054364053
-0.8594263463754539 0.5111366241555595 0.01121189558441783
-0.8801696366873466 0.4744876837942359 0.01276121394087549
-0.9018092859256462 0.4318893482338738 0.01454657005603035
-0.9218578460225194 0.387175697233726 0.01652547119746382
-0.9403943522612875 0.3395876245379577 0.01840400759997152
-0.9571969839145854 0.2887416207464053 0.02005518470519393
-0.9718121329569326 0.2347704197008298 0.02154131544713293
-0.9835505305992773 0.1791722311113059 0.0229273931461012
-0.9921945511634452 0.1223535303944757 0.0240745974333299
-0.9976020109572138 0.06459965624224411 0.02484174203847537
-0.9996636884766098 0.006283337038038507 0.02516007982907077
-0.9983247041960173 -0.05217073776763614 0.02501997427485616
-0.9935909914501309 -0.1103630439435921 0.02443236052144428
-0.9855183389291793 -0.1679466864888851 0.02339901988705452
-0.9742501555620154 -0.2243988046007912 0.02195019091315576
-0.9603527903718674 -0.2780477865110292 0.02029646376304973
-0.9442750314363257 -0.3286216266077508 0.01877475783069535
-0.9262928686738435 -0.3763938148588871 0.01758458358775641
-0.9064513391859854 -0.4219787336592316 0.01673075094800192
-0.8871362323717226 -0.4612190940635322 0.01631724500394823
-0.8673909217191398 -0.4973596050179027 0.01632213881990803
0 0 0
0 0 0
0 0 0
0 0 0
0 0 0
0 0 0
0 0 0
0 0 0
0 0 0
0 0 0
0 0 0
0 0 0
0 0 0
0 0 0
0 0 0
0 0 0
-0.7649859768265382 0.643952430324386 0.01103280281991486
-0.7853352834141409 0.6189586617497848 0.01177572374615968
-0.8162676303592041 0.5775477952576288 0.01207061807949697
-0.8419877250095484 0.5393269837806804 0.01353053950432177
-0.8661034279517842 0.4996157391107898 0.01577863501532572
-0.8895867016040855 0.4563932081777985 0.01845914023837293
-0.911830417562626 0.4100110506075074 0.02135949407861295
-0.9324988474051159 0.3603574967893677 0.02425642380547031
-0.9512050129378545 0.3073771138153299 0.02698765022103581
-0.9674680331996445 0.2512720206306353 0.02946143895007074
-0.9807495311313043 0.1926978360926978 0.03158957345260967
-0.9906634488854659 0.1322173011992124 0.03323426403502468
-0.9969313942348542 0.0703825113952688 0.0342651029276691
-0.9993708363681992 0.007783779207569304 0.03460266171804186
-0.9979020230769491 -0.05495563981958849 0.03422615945371538
-0.9925546292716538 -0.1171986929735198 0.033162844822298
-0.983472956220749 -0.1782972732592541 0.03148057703941511
-0.9709348093817689 -0.237543436858222 0.02930378024029017
-0.9553962765846561 -0.2941043359144392 0.02684388728372198
-0.9373224957539135 -0.3476107153536622 0.02435835636838445
-0.9171364690250869 -0.3979630081224985 0.02204861334159803
-0.895252886221631 -0.4451081273267962 0.02002560110137398
-0.8723622507542227 -0.4885156409395048 0.0183458991736757
-0.8477397861508327 -0.5301428753529749 0.01690522668938869
-0.8181888611689092 -0.5747454926891674 0.01531685648587602
-0.7985952599320136 -0.601689007558576 0.01469520320698151
0 0 0
0 0 0
0 0 0
0 0 0
0 0 0
0 0 0
0 0 0
0 0 0
0 0 0
0 0 0
0 0 0
0 0 0
0 0 0
-0.7183138931435711 0.6956498755109124 0.00981843259271418
-0.7432235978109752 0.6689526350523757 0.01100253213546556
-0.7684759646056309 0.6397544357833098 0.01260768491926477
-0.7963372367945039 0.6046788118004351 0.01450999152680319
-0.8233805835898462 0.5672297103579642 0.01717178658334096
-0.849692519491821 0.5268777504966701 0.02055379165042989
-0.8753182758254446 0.4829289153324607 0.02444542373908089
-0.8998600301960044 0.4352387913123088 0.02862028288899184
-0.9228596964966033 0.3837333837602287 0.03284312363526692
-0.9438030713253804 0.3284428304359581 0.03689267802687427
-0.9621213726929753 0.2695861493039949 0.04056811938984113
-0.97723071311153 0.207635920574009 0.04367445293204845
-0.9886238170576178 0.1431965410660988 0.04601846339384167
-0.9959037393651509 0.07697630683377413 0.0474382767893372
-0.9988075625248616 0.009766952130389105 0.04783366690132385
-0.9972249616593613 -0.05758792333965121 0.04718057787809699
-0.9912082986981592 -0.1242295298148562 0.04553166495835417
-0.9809729539003113 -0.1893200612542597 0.04301137201694692
-0.9668883766782799 -0.252075178555007 0.03981169929683152
-0.9494538470180529 -0.3118144145262788 0.03618236139685918
-0.9292174214877965 -0.3681108324175749 0.03239442329182965
-0.906729086588796 -0.4207367331528223 0.02868736498421626
-0.8825303342373316 -0.4695776644943238 0.02523937715157375
-0.8571415331061688 -0.5146038929027418 0.02216361057566103
-0.8307034731635093 -0.5563733979015267 0.01950337872244953
-0.8033292092263152 -0.5952829744966729 0.01733095145153729
-0.7784046115557554 -0.6275562704836868 0.01610552965098823
-0.7540575038651055 -0.6566144351358745 0.01596134192110244
0 0 0
0 0 0
0 0 0
0 0 0
0 0 0
0 0 0
0 0 0
0 0 0
0 0 0
0 0 0
0 0 0
-0.6654213462530324 0.746413229699039 0.00904004873057474
-0.6920180886949537 0.7218085512671387 0.01016760722180225
-0.7185154019949879 0.6954050818499867 0.01214039674778931
-0.7456643744819303 0.6661566266397888 0.01483204006089242
-0.7739145107103359 0.6330284197692616 0.01820301833246355
-0.8023526514663885 0.5964312496616584 0.02236039158619412
-0.8306573553568938 0.5561157443421242 0.02726970638447667
-0.8585456767357135 0.5116888555123725 0.03276943854956205
-0.8855631660737696 0.4629100262851347 0.03862882936481853
-0.9111494133086423 0.4096582397101993 0.04457435658376883
-0.9346638844998914 0.3519551398340785 0.05030907031487713
-0.9554091180800333 0.2900176285032561 0.05552650040187769
-0.9726761288331558 0.2242999328411136 0.05992235413947826
-0.985815221212789 0.1554741599309924 0.06321499204248431
-0.9942978749994872 0.08440084516351019 0.06517847119401303
-0.9977678960257422 0.01208339738833085 0.06567508787903116
-0.9960771295666827 -0.06039368734880415 0.0646757642599786
-0.9893007487276159 -0.1319361117374722 0.06226468490705976
-0.9777295949982323 -0.2015126877863305 0.05862998998568041
-0.9618399382479248 -0.2682222866911064 0.05404385361372081
-0.94224273629874 -0.33135177826242 0.04883262162320078
-0.919614779083593 -0.3904236132354076 0.04333659330453313
-0.8946443991012704 -0.4451711776905074 0.03786847911354663
-0.8679961056926561 -0.4954940443865197 0.03268657950707726
-0.8402733683085134 -0.5414400448787472 0.0279882888573954
-0.8119452812136417 -0.5832430682102825 0.02392454178360104
-0.7835254991822658 -0.6210163204146778 0.02065240687655199
-0.7560813925089948 -0.654219277397281 0.01838654354245476
-0.7294210977956791 -0.6838487938008581 0.01719561885066605
-0.7031260992001441 -0.7108632966579564 0.01694290672141289
0 0 0
0 0 0
0 0 0
0 0 0
0 0 0
0 0 0
0 0 0
0 0 0
0 0 0
-0.6118097161257868 0.7909647913817378 0.007973082749307202
-0.6371011663062127 0.770724097715685 0.009298875824853801
-0.6632447049431556 0.74831558740552 0.01141240600387198
-0.6904458832952998 0.72323958342709 0.01445638975614437
-0.7187369017454798 0.6950372149964201 0.0184536131781329
-0.7480778483035738 0.663197941309843 0.02340990217580381
-0.7780849346396088 0.6274737142314414 0.02933551491748768
-0.8084212437859415 0.5874924042391958 0.03616306896323811
-0.8386994021476106 0.5428365220831527 0.04372439970893597
-0.868395006900988 0.4931642198291775 0.05176064402333948
-0.8968486166409392 0.4382581076244789 0.05993654920533514
-0.9232846831667185 0.3780750849323374 0.0678573797249598
-0.9468443572471326 0.3128053417516751 0.07509048755256272
-0.9666418211728187 0.2429216693461307 0.08119514838821952
-0.9818443389163776 0.1691930802830606 0.0857636037150418
-0.9917594441951966 0.09266190786537946 0.08847019656574794
-0.995914395021456 0.01458234276263874 0.08911718727944434
-0.9941129107145219 -0.06367387720482273 0.08766503357899018
-0.9864576486592521 -0.1407303141913941 0.08423945672456723
-0.9733338588688161 -0.2153186309242652 0.07911438779665111
-0.955358070243255 -0.2863726240555361 0.07267515264951246
-0.9333029514820308 -0.353089850870797 0.06536939625671695
-0.9080140911721395 -0.4149534688569181 0.05765439199613155
-0.8803390370726429 -0.471707588917521 0.04995127989982259
-0.8510751670972906 -0.5233115405946434 0.04261562425659471
-0.8209313601371377 -0.5698954931577537 0.03592810629394453
-0.7905077408842989 -0.6117117429034385 0.03010407274836894
-0.7603614186927542 -0.6490066056863163 0.02531676794276614
-0.7310932128855707 -0.6819321564451 0.02170824909541276
-0.7029914196287305 -0.7109351567701333 0.01934597623815755
-0.6762994248578441 -0.7364012853124897 0.01822731266703248
-0.6511154079450541 -0.7587571782150456 0.01833766734583188
0 0 0
0 0 0
0 0 0
0 0 0
0 0 0
0 0 0
0 0 0
0 0 0
-0.585465218847059 0.8106504802758431 0.00873363320215617
-0.6056907800868649 0.795629159325371 0.01062637045126203
-0.6310524949332925 0.7756192421096145 0.0136945210859351
-0.6586406015757514 0.7522432661237474 0.01796180746496239
-0.6878039639966042 0.7255168758376522 0.02347274984593782
-0.7183169804312491 0.6950580932819499 0.03024834850684668
-0.749923996734958 0.6604158835226187 0.03827348837125616
-0.7823176456845452 0.6210691191955741 0.04745788061243145
-0.8150819978350269 0.5764742919623856 0.05760839792709708
-0.8476401184368341 0.526141837682752 0.06841780657260291
-0.8792381131831335 0.4697080360893718 0.07946509396727787
-0.908955139077496 0.4070129494889119 0.09022756836436212
-0.9357402783013973 0.3381840474027172 0.1001083495355874
-0.9584826220003262 0.2637092152145764 0.1084827780538987
-0.9761140027984891 0.1844742696315243 0.1147636588150888
-0.9877301269625518 0.1017464503793284 0.1184772388509605
-0.992706977221173 0.01709476993782312 0.1193340949484832
-0.9907859406279376 -0.06774544648413419 0.1172764867084511
-0.9821065394001104 -0.1510396502719162 0.1124889741853673
-0.9671790779121042 -0.2312183925916471 0.1053692847865361
-0.9468058840119246 -0.3070058461383833 0.09646775853751707
-0.9219725863289477 -0.3774913476742885 0.08641083548351898
-0.8937353438410927 -0.4421397712243565 0.07582583907163253
-0.8631260958698429 -0.5007511668447644 0.06528101969247412
-0.8310855085386132 -0.553393566154109 0.05524887724064521
-0.7984238657322885 -0.6003288421956887 0.04609351209326173
-0.7658122108467709 -0.6419359560240561 0.03807736967624906
-0.7338158184904193 -0.6786234081146704 0.03137856739981537
-0.7029434655778326 -0.7107664567087005 0.02610609544118927
-0.6736777331765488 -0.7386885285513304 0.02230626837408723
-0.6469353171201094 -0.7622828616880089 0.01998835259452492
-0.6258988762139398 -0.7796693112751699 0.01914058018526962
0 0 0
0 0 0
0 0 0
0 0 0
0 0 0
0 0 0
0 0 0
-0.5097850587802857 0.8602423501984091 0.01011398880253791
-0.5419609568259749 0.8403376858572393 0.01053066970201059
-0.5678707265586647 0.8230166516318006 0.01290073852588402
-0.5944757547751633 0.8039347166647931 0.01695724994207589
-0.6226663828355058 0.7821608374108274 0.0226053114851344
-0.6525563490202068 0.7571515255659306 0.02986266375596391
-0.6841151389637871 0.7283435394980284 0.0387577748592672
-0.7172082820728081 0.6951143452730157 0.04927805923367087
-0.7515876298284355 0.6567762821714764 0.06132658368021845
-0.7868493450934372 0.6126093548981233 0.0746852489942524
-0.822386796749618 0.5619262961428475 0.08898760719944229
-0.8573609899524546 0.5041602230161213 0.103704399309196
-0.8906982714916215 0.43897343440966 0.1181478440109043
-0.921125984177372 0.3663795572178724 0.1315026285900889
-0.947256750468756 0.2868570966853881 0.1428903592710232
-0.9677228226903031 0.2014207105520478 0.1514669462457717
-0.9813445122050068 0.1116157664407254 0.1565403112522961
-0.9872989110311937 0.01941566708232417 0.1576828847667583
-0.9852460036454235 -0.07297093115895339 0.1548081248078306
-0.9753764273445342 -0.1633443158223464 0.1481872446236223
-0.9583681073963055 -0.249751450531043 0.1384008081019141
-0.9352676431114904 -0.330662639667902 0.1262404629131743
-0.907332760951852 -0.4050566148614285 0.1125895184308429
-0.8758763058126474 -0.4724145483543539 0.09831170540246466
-0.842141558766955 -0.5326473894617131 0.0841686016111978
-0.8072213545940091 -0.5859904581886082 0.070773353737952
-0.7720198429592605 -0.6328933631636616 0.05857775124181121
-0.7372508185853156 -0.6739201959580771 0.04788319094534509
-0.7034645210206175 -0.7096670101874991 0.03886389477096146
-0.6710812634045635 -0.7407104423614522 0.03159079745806005
-0.6404038418470643 -0.767596538357486 0.02604752673718039
-0.6115865161857164 -0.7908680189133467 0.02212938950572293
-0.5840318910416715 -0.8114944910071206 0.0195816575238863
-0.5512490991309178 -0.8341480472365667 0.0179294729084058
0 0 0
0 0 0
0 0 0
0 0 0
0 0 0
-0.4465485214473921 0.8947104405047624 0.009361925278548743
-0.4744263662970769 0.8802350114699926 0.01029308236500982
-0.5013995578206107 0.8651307395996989 0.01213617802166495
-0.5273117669153936 0.8495278290997196 0.01564506496255659
-0.554033101684032 0.8322298362173034 0.02099576024083515
-0.5823692725312604 0.8124328033630436 0.02826606500869607
-0.6126280954660621 0.7894791588776695 0.03754296663068353
-0.6449195046507251 0.7626843423045895 0.04890221390160602
-0.6792205459765138 0.7312796848563474 0.06236563508669619
-0.715363722525435 0.6944016107554417 0.07785337163411572
-0.7529907818790711 0.6511176604099405 0.09513503406963122
-0.7914948322079033 0.6004906639495685 0.1137844150030607
-0.829970837634315 0.5416831245275843 0.1331457895640211
-0.8671933467533095 0.4741023642489163 0.1523241529120761
-0.9016429763631283 0.3975759798427165 0.1702154030255274
-0.9316021169851827 0.3125278201462513 0.1855905635083785
-0.955327979333939 0.2201041644912674 0.1972374423767796
-0.9712852801147061 0.122191959347889 0.204142180117731
-0.9783898898508548 0.02128821252900094 0.205669724181639
-0.9761953603528822 -0.07977480096059444 0.2016893640160609
-0.9649629222672439 -0.1781878859017874 0.1926022740450168
-0.9455937866724158 -0.2715104136067782 0.1792609436257582
-0.9194513272238999 -0.3579139607526235 0.1628092551563877
-0.8881335075529341 -0.4362798692913264 0.1444948041033468
-0.853258474569061 -0.5061609320157437 0.12550333253357
-0.8163049083092374 -0.5676534217652178 0.1068451656767243
-0.7785202583009044 -0.6212339876558786 0.08930027993387445
-0.740889204220002 -0.6676030985505305 0.07341178295057341
-0.704145503570302 -0.7075574798317613 0.05951069261781211
-0.6688081278835336 -0.7418997027227746 0.0477547817163998
-0.6352194166515356 -0.7713880320322303 0.0381680068424481
-0.6035593878679233 -0.7967278851336279 0.03067152371489846
-0.5737915619936037 -0.8186165982492462 0.02510196119374417
-0.5453818627687882 -0.8379189535602177 0.02122383159083412
-0.5167362820941176 -0.8559380603923078 0.01880562520635266
-0.4881655943174031 -0.8725669857467039 0.0179222741204178
0 0 0
0 0 0
0 0 0
0 0 0
-0.4172117661991518 0.9087625513559392 0.009217776197506076
-0.436034605960323 0.8998638880806381 0.01089978593469203
-0.4590982622411174 0.8882756122767851 0.01397219529953122
-0.4835936919256983 0.8750906067978378 0.01880348435435046
-0.5095902238809299 0.8600340930696794 0.02567415982650985
-0.5374911579726436 0.8425510017635505 0.03480035241867169
-0.5676093634569357 0.8219908990282376 0.04637426474631253
-0.6001467358638771 0.7975944098239831 0.06055619579749982
-0.635189614391409 0.7684644187082 0.07743765846641414
-0.67267416211591 0.7335549231829696 0.09698786674468778
-0.7123241580941554 0.6916905934583899 0.1189891453731495
-0.7535722366818589 0.6416300452917417 0.1429677204169423
-0.7954814451666271 0.5821864496892803 0.1681315205242755
-0.8366917383477969 0.512414342293193 0.1933351411222889
-0.8754247938263219 0.4318554519761716 0.217099744248116
-0.9095833914810625 0.3408061259728324 0.2377167188928817
-0.9369673459674173 0.2405323120884224 0.2534490075580715
-0.9555902673830415 0.1333352582887071 0.2628097216236308
-0.9640289269039741 0.02239031832595538 0.2648526037962128
-0.961698446163617 -0.08864577240732674 0.2593800795758849
-0.9489552114205997 -0.1961639861965222 0.2469892654290364
-0.9269922488022257 -0.2971078937700302 0.2289372624107493
-0.897574441649434 -0.3893084264850157 0.2068793628312583
-0.8627129282313516 -0.4715858487811332 0.1825737951948865
-0.8243756752123846 -0.5436500847020318 0.1576367074053433
-0.7842902356061976 -0.6058843490934068 0.1333903364432109
-0.7438481135810709 -0.6590995442066176 0.1108051205879509
-0.7040900069880718 -0.7043187354168393 0.09051177271692475
-0.6657413271422378 -0.7426176402130581 0.07285276782168505
-0.6292695696759346 -0.7750237783893622 0.05794783525672142
-0.5949410127338702 -0.8024658956168784 0.04575672342943285
-0.5628605499970643 -0.8257617834659948 0.03613140218786486
-0.5329881037857829 -0.8456304775041644 0.02885787135104614
-0.5051732434814203 -0.8626925144155007 0.02369851560587703
-0.4795866193837002 -0.8772560123740653 0.02045881867720747
-0.4592676523853089 -0.88809349117378 0.01905713533702224
0 0 0
0 0 0
0 0 0
-0.341566532563768 0.9398207469609022 0.008322704741577426
-0.3701002207728705 0.928943540858526 0.009472300728731455
-0.3914247049643362 0.9201322538957319 0.01197228818321948
-0.4131259471691633 0.910530393524394 0.01616645427707911
-0.4361425968170316 0.8995998316193362 0.02235571945068223
-0.4608874218695831 0.8869215604176566 0.03086956476397738
-0.4877554503263608 0.8719679645863974 0.04202962540855453
-0.5171033368173387 0.8540797074405555 0.05614260762227536
-0.5492261540460621 0.8324368618928197 0.07348130832943137
-0.5843297285834832 0.80602540435945 0.09424338608484482
-0.6224798384507506 0.7736146350200842 0.1184873293017813
-0.6635229679274268 0.7337625804017406 0.1460470699293812
-0.7069821411454813 0.6848712745019828 0.1764301262919103
-0.7519415705375992 0.6253180626826819 0.2087131883236547
-0.7969484834675803 0.5536863776610484 0.2414632682030747
-0.8399786788936066 0.4690996145886731 0.2727294824490177
-0.8785243335435717 0.3716173944308411 0.3001591370061139
-0.9098508787575572 0.2625893006991579 0.3212759523873945
-0.9314177622963415 0.1448090440998513 0.3339031189218846
-0.9413722052921353 0.02232539627901691 0.3366302835224518
-0.9389517615266811 -0.1001184159061807 0.3291593722232117
-0.9246353368277072 -0.217868988819485 0.3123821339326031
-0.8999841968808606 -0.3271020824333896 0.2881539051140063
-0.8672529774332124 -0.4252779750992214 0.2588646693327105
-0.8289320401982027 -0.5112272929264077 0.2269764915139479
-0.7873670815535488 -0.5849426662542495 0.1946667821720393
-0.7445269968302998 -0.6472273983274071 0.1636344885566301
-0.7019170408765888 -0.6993375428997243 0.1350535775832279
-0.6605948727617682 -0.7426958435384101 0.1096234376017832
-0.6212406442012811 -0.7787008129646122 0.08766473567306493
-0.5842432617078709 -0.8086209797709283 0.06922371142355455
-0.5497792930296165 -0.8335519717709262 0.05416492696067642
-0.5178734947864654 -0.8544134649415857 0.04224540595338289
-0.4884411391219737 -0.871966109849338 0.03317162774782653
-0.4613268595197114 -0.8868301031212563 0.02664389017432525
-0.4363386545139165 -0.8995040562434051 0.02238373022187571
-0.4127545193504716 -0.91062046445855 0.02010165329158024
-0.3832155065837419 -0.9234541684858469 0.0194492729909931
0 0 0
0 0 0
-0.3118174802996324 0.950107919064287 0.008049913721130666
-0.3268853448442815 0.9450113682680252 0.009974225294682384
-0.3446310996634863 0.9386425897270125 0.01339753317975562
-0.3639732170189613 0.9312221478605867 0.01867641900319359
-0.3849538164533382 0.9225635693544325 0.02621106060460385
-0.4078378458363194 0.9123279261862022 0.03641492282531466
-0.4329902337956066 0.9000266376541896 0.04971427310661663
-0.460806994258638 0.8850024841079502 0.06653959095964006
-0.4916721949907307 0.866393091497168 0.08730099471928086
-0.5259163119721262 0.8430846486253342 0.1123401444450439
-0.5637550077654085 0.8136694891098003 0.1418529298647733
-0.60519593266731 0.7764275791348711 0.1757785465911791
-0.6499096773883541 0.7293618484352413 0.2136555763000177
-0.6970730874427694 0.6703285779125229 0.2544576750596826
-0.7452140190418538 0.5973078949676097 0.2964445048113555
-0.7921162872504071 0.5088406352724634 0.3370949352454672
-0.834871630320519 0.4045972980900288 0.3732162741148977
-0.8701643590741648 0.2859397744904443 0.4013133857241756
-0.8948097326273013 0.1562291706957166 0.4182200241729052
-0.9064342453055066 0.02062296875750541 0.4218431605431848
-0.9040536305383987 -0.1147201776587633 0.4117357331447947
-0.8882923888679682 -0.2438012359953708 0.3892269122329119
-0.861148969275796 -0.3618598401327217 0.3570432870316353
-0.8254382582910256 -0.4659821912471935 0.3186099169673497
-0.7841662700207562 -0.5551295749949807 0.2773344838414906
-0.7400488574827551 -0.6297491689008727 0.2361009801062426
-0.6952559015524068 -0.6912268316965436 0.1970398398784048
-0.6513521845655084 -0.7413848782973745 0.1615202584622943
-0.609360086600036 -0.7821191142555666 0.1302688603423088
-0.5698735524698906 -0.8151841564722193 0.103532242475581
-0.5331767536453417 -0.8420948419950073 0.08123316107118662
-0.4993447786473507 -0.8641026522707406 0.06309832308627011
-0.4683208559638161 -0.8822123475458501 0.04875397119167052
-0.4399773506888613 -0.8972132022159288 0.0377941880485483
-0.4141794155641121 -0.9097063391843094 0.02982931730449427
-0.3908763106776355 -0.9201166017926772 0.02451833714866221
-0.3702494027003122 -0.9286817025205061 0.02157950888402356
-0.3536185547716197 -0.9351603100779334 0.02071502295855848
0 0 0
0 0 0
-0.2701524636353284 0.9627762085478567 0.00892292810549121
-0.2805580312924191 0.9597725644707794 0.01112724433563671
-0.2950263945781765 0.9553684039231146 0.01518681295078756
-0.3116608120710095 0.9499522430874552 0.02140733688133166
-0.3300993057655104 0.943462580466932 0.03021270580079149
-0.3504891156921837 0.9356209348010304 0.04208142278198991
-0.3731738031347333 0.9259754132304694 0.05753995782602001
-0.3985819485591134 0.9138819308204822 0.07715080558650772
-0.4271739489489971 0.8984561381017403 0.1014839161967324
-0.4593969444216348 0.8785084190810302 0.1310625997751217
-0.4956213486635423 0.852474500252779 0.1662729838780355
-0.5360411735820758 0.8183626270618733 0.2072256520152349
-0.5805265628674628 0.7737540778989922 0.2535617020371366
-0.628428636911896 0.7159146013476926 0.3042100127974586
-0.6783610771252847 0.642091234428908 0.3571345624704839
-0.728024885998023 0.5500585287463159 0.4091642461420638
-0.7741930603726686 0.4389049556450598 0.4560565153366507
-0.8129938480642659 0.3098894326033597 0.4929599806986611
-0.8405626284255062 0.1669980826824884 0.5153310664755001
-0.853941411991061 0.01676046254071242 0.5200991749485226
-0.8518814533238704 -0.132862802081247 0.5066018804800563
-0.8351555887716484 -0.2741821657035255 0.476801093280631
-0.806227592511633 -0.4013359740643027 0.4346567668802052
-0.7684849085485747 -0.5110786857403596 0.3850058730915607
-0.7254201694071949 -0.6026804104628569 0.3324784213472483
-0.6800528855452396 -0.6772565777410247 0.2808052719734942
-0.634671664282047 -0.7369534846288845 0.2325756652162912
-0.5908246488969241 -0.7842745388590452 0.1893137130618326
-0.5494417534368928 -0.8216442355241055 0.1517053387663078
-0.5109958690045422 -0.8511865088421416 0.1198530309396412
-0.4756514477340835 -0.8746509309715574 0.09349571765090441
-0.4433815233396523 -0.8934224517467135 0.07217442397345401
-0.4140542691689899 -0.9085679904865104 0.05534680520353045
-0.3875023407955782 -0.9208902710517913 0.04246227219668037
-0.363600811712815 -0.9309697988018556 0.03301035353663996
-0.342406248440773 -0.9391767071677746 0.02655322470456705
-0.3245070510006897 -0.945609739247912 0.02274631597272296
-0.3121125985341913 -0.9498065524044551 0.02128940689162442
0 0 0
0 0 0
-0.2210165029095535 0.9752135013693323 0.0105039130136431
-0.230140074586146 0.9730749551653267 0.01267587075825393
-0.2423271118623556 0.9700430051796095 0.01715047983471035
-0.2562543013474365 0.9663071659417176 0.02417010737713145
-0.271755767623695 0.9617605580215436 0.0341384211314016
-0.2890407033029921 0.9561336242754089 0.04758113453966852
-0.3084777820142224 0.9489998019526168 0.06512168530896005
-0.3305252887060028 0.9397359126971041 0.08746112229530102
-0.3556979644416332 0.927455678757749 0.1153469636881733
-0.3845335740602601 0.9109219853893575 0.1495161093486355
-0.4175380283383746 0.8884456512188694 0.1905946476729638
-0.4550902587482878 0.8577898337911509 0.2389340022620589
-0.4972894271439648 0.8161207789476614 0.2943638901439658
-0.5437344815769714 0.760078496077624 0.3558560008551194
-0.5932500708345162 0.6860766705482446 0.4211331803411793
-0.6436234773142432 0.5909507031421537 0.4863394759894731
-0.6914925074750229 0.4729961164227329 0.5459970567273391
-0.7325820671150711 0.3332136520033483 0.5935420600597739
-0.7624328352339043 0.1762368694190272 0.6226048005071678
-0.7775176207229086 0.01022519825004774 0.6287780170983506
-0.7762964299289785 -0.154656345305379 0.6111016836307238
-0.759644351941356 -0.3086827001810709 0.5724119575729699
-0.7304204410573635 -0.444765200701498 0.5183337684644151
-0.6924771274237913 -0.5594315440212306 0.45553460411797
-0.6496538373208168 -0.6524892153224235 0.3901380724080449
-0.6051277112117088 -0.725952231636505 0.326823821814837
-0.5611821611714269 -0.7828903332054993 0.2686211238088844
-0.5192628406094897 -0.8265711260017189 0.217131932295582
-0.480160789963426 -0.8599692536988031 0.1729118228300823
-0.4442133713383496 -0.8855630193173269 0.1358404193964248
-0.4114721348598516 -0.9053059542193379 0.105412577470099
-0.3818255796171925 -0.9206833479610491 0.08094071618924613
-0.3550837552810843 -0.9327972183766569 0.06168367794038917
-0.331039876538009 -0.9424493982336469 0.04692261619662663
-0.309530422363965 -0.9502077677004512 0.0360016087544742
-0.2905342766863092 -0.9564446481683904 0.02834552981347292
-0.2744312026432655 -0.9613203685280364 0.02346623252443397
-0.262886540697415 -0.9645983061449804 0.02099463032254497
0 0 0
-0.1319274081532877 0.9911963905361897 0.01117471995103847
-0.1613541576549601 0.9868288218842736 0.01156339508770408
-0.1754776353123335 0.9843838518736076 0.01400113122824353
-0.1867666333624477 0.9822214742877419 0.01895257529918231
-0.1980745484910226 0.9798228867505099 0.02671299009797152
-0.2102878404846216 0.9769112906399499 0.03772736890509314
-0.2238895615941905 0.9731946204753571 0.05258987437697713
-0.2393150436066937 0.9682667009865255 0.07202711756134683
-0.2570389088006599 0.9615325530900687 0.09688213824363914