# OOMMF: rectangular mesh v1.0
# Segment count: 1
# Begin: Segment
# Begin: Header
# Title: 
# Desc: time = 1.38e-09
# Desc: stepsize = 3.008979731080252e-14
# Desc: step = 8830
# meshunit: m
# valueunit: (none)
# valuemultiplier: 384000.0000000001
# xmin: 0
# ymin: 0
# zmin: 0
# xmax: 9.357999999999999e-08
# ymax: 9.357999999999999e-08
# zmax: 2.3395e-08
# ValueRangeMaxMag: 1
# ValueRangeMinMag: 0
# meshtype: rectangular
# xbase: 1.16975e-09
# ybase: 1.16975e-09
# zbase: 1.16975e-09
# xstepsize: 2.3395e-09
# ystepsize: 2.3395e-09
# zstepsize: 2.3395e-09
# xnodes: 40
# ynodes: 40
# znodes: 10
# End: Header
# Begin: Data Text
0 0 0
0 0 0
0 0 0
0 0 0
0 0 0
0 0 0
0 0 0
0 0 0
0 0 0
0 0 0
0 0 0
0 0 0
0 0 0
0 0 0
0 0 0
0 0 0
-0.9897102938498195 0.1414015065919159 0.02188945365329478
-0.99375349841723 0.1093078703359465 0.02248941675845685
-0.9975701930100936 0.06590821236328434 0.02257913994996034
-0.9995879229110619 0.01817570754416027 0.0222177412357217
-0.9992945944152579 -0.03071010198652928 0.02161488395577263
-0.9966991747281239 -0.07840937164601915 0.02104104404141103
-0.9923433696182344 -0.1217420860476232 0.02082069306004381
-0.9878803358906529 -0.1537579819228921 0.02123499365597899
0 0 0
0 0 0
0 0 0
0 0 0
0 0 0
0 0 0
0 0 0
0 0 0
0 0 0
0 0 0
0 0 0
0 0 0
0 0 0
0 0 0
0 0 0
0 0 0
0 0 0
0 0 0
0 0 0
0 0 0
0 0 0
0 0 0
0 0 0
0 0 0
0 0 0
0 0 0
0 0 0
0 0 0
-0.9329037298751215 0.3591501848377328 0.02649104596100494
-0.9440455107872798 0.3286745722111866 0.02740618806358591
-0.9578746207517107 0.2858715747291475 0.02745275362587847
-0.9716095020974359 0.2351043142064524 0.02647521247291249
-0.9845974021112283 0.173053801489764 0.02490657635566949
-0.9921996289370492 0.1221657653718057 0.02480770260024328
-0.9971248029808952 0.07162114865498447 0.02474951202853624
-0.9995008541710934 0.02006616314864652 0.02440064769111381
-0.9992077093990026 -0.03190509755471425 0.02379113758569883
-0.9962504528667125 -0.08338542285476866 0.02306309645734438
-0.9907637575659711 -0.1337449725709153 0.02234857950210738
-0.9826480589609944 -0.1842262253284655 0.02152882071584183
-0.9692403060112589 -0.2453351384500148 0.0195933418515712
-0.9551613460719668 -0.2955864234320709 0.01718921908128556
-0.9409888757219282 -0.3380774426426709 0.01560700303621921
-0.9295602093556784 -0.3683487979311764 0.0153941627016215
0 0 0
0 0 0
0 0 0
0 0 0
0 0 0
0 0 0
0 0 0
0 0 0
0 0 0
0 0 0
0 0 0
0 0 0
0 0 0
0 0 0
0 0 0
0 0 0
0 0 0
0 0 0
0 0 0
0 0 0
0 0 0
0 0 0
-0.8834030531829262 0.4678665232237562 0.02645679635930624
-0.8986140378899409 0.4378915772054585 0.02727228482638075
-0.9206025034522409 0.3895133017494245 0.02775641183092331
-0.9380229970514589 0.3453759748703171 0.02878007965548616
-0.9541245334921995 0.2979607478415465 0.02942392451727036
-0.9687890688134193 0.2461230343392989 0.02951596373563689
-0.981405748847466 0.1896858601140587 0.02936035766017571
-0.9905194393424815 0.1341756388410317 0.0294641854843497
-0.9964670407615636 0.07864738222483436 0.0294622800385931
-0.9993170338931613 0.02273815898432745 0.02912802597116968
-0.9990404105958721 -0.03332496226614438 0.02842014930274736
-0.9956437251760087 -0.08912644063679144 0.0273870425029039
-0.9891732757733709 -0.1444182097782299 0.02606935327600734
-0.9795888507755816 -0.1995267632641398 0.02438758244497519
-0.9665834585079067 -0.2553948404227706 0.02213353167301717
-0.9515825031981193 -0.306763492713008 0.01966975205020384
-0.9351661171993363 -0.3537690339858048 0.01765796803335589
-0.9175012509012374 -0.3973963996539578 0.01635714329386143
-0.8954818610012663 -0.4448364684258838 0.01525624383968816
-0.880192865509461 -0.4743835812142187 0.01485723327594314
0 0 0
0 0 0
0 0 0
0 0 0
0 0 0
0 0 0
0 0 0
0 0 0
0 0 0
0 0 0
0 0 0
0 0 0
0 0 0
0 0 0
0 0 0
0 0 0
0 0 0
0 0 0
0 0 0
-0.8453649801572827 0.5334854182846163 0.02741092485423499
-0.8670657222555087 0.4974108855600367 0.02791852818313094
-0.8881868885443827 0.4585496039078467 0.02926280529622455
-0.9100662906104039 0.4133156273644357 0.03081458860608064
-0.9301157009527592 0.365821725426045 0.03254609112425566
-0.9483831196410396 0.3152885000101617 0.03409721603402621
-0.9646019042952607 0.261337358158507 0.03529803763225612
-0.9782612277648055 0.2041945216496075 0.03618794799906106
-0.9886635170483341 0.1455590986120925 0.03683746555957475
-0.9956088284601264 0.08594752785185442 0.03709559473048544
-0.9989908044066818 0.02571985594833607 0.03682202765854743
-0.998751003168477 -0.03468362972257524 0.03596497600760122
-0.9948989741658155 -0.09477809553760461 0.03454191381599826
-0.9875138672769296 -0.1541232726432552 0.03259415232054592
-0.9767242751570744 -0.2123688256950427 0.03015248234881095
-0.9627423742791017 -0.2690407936849187 0.02727951797276389
-0.9462471370528862 -0.3225345626978524 0.02424482387068988
-0.9277360886865444 -0.3726217709424743 0.02141881341917957
-0.9075026364406492 -0.4196163006904257 0.01900329045592409
-0.8855486923537038 -0.464235897225788 0.01698661819233986
-0.8644364054751345 -0.5025011503137409 0.01556582225888448
-0.8429973596889044 -0.5377171354576443 0.01468787911036628
0 0 0
0 0 0
0 0 0
0 0 0
0 0 0
0 0 0
0 0 0
0 0 0
0 0 0
0 0 0
0 0 0
0 0 0
0 0 0
0 0 0
0 0 0
0 0 0
-0.7696639390536471 0.6377850138991238 0.02911523597908542
-0.7907473769728892 0.6114211656804522 0.02971100753007161
-0.8228530803066599 0.5674747152230503 0.02975324876981546
-0.8494234253829671 0.5267915076416695 0.0311536817612782
-0.8741843478475413 0.4844424212724525 0.03342553589775199
-0.8981095671429079 0.4382852727752831 0.03612789884111026
-0.92053026906048 0.3887200282565765 0.03899696623643941
-0.9410547918570867 0.3356677883495135 0.04174942619199362
-0.959237453683712 0.2791278282159161 0.04417197036417766
-0.9745412403735977 0.21941029984501 0.046135573400705
-0.9864013160705191 0.1573313719650356 0.04753191611903392
-0.9944414333385317 0.09360354214493195 0.04821423604629445
-0.9984259624736934 0.02890785427812382 0.04806176671235625
-0.9982427521825085 -0.03605750904663447 0.04702407634863193
-0.9939043733428198 -0.1005878530551866 0.04512405641965676
-0.9855467718407048 -0.164001081988948 0.04244061287044774
-0.9734235294168391 -0.2256505669845696 0.03909544726954459
-0.9579150548317652 -0.284877252584683 0.0352661124375579
-0.9395723859654639 -0.3409242484636211 0.03121519406762726
-0.9189207885923368 -0.3935009217445006 0.02723249674681701
-0.8964134797433914 -0.4425937449555706 0.02352977391618686
-0.87246366647315 -0.4882607030342894 0.02021476086153072
-0.8477618722445421 -0.530093295930652 0.01734663015706276
-0.8214306988037806 -0.570117108286192 0.0147678672164479
-0.7898839832734016 -0.6131395025833789 0.01196843097279022
-0.7690020986545052 -0.6391585321601051 0.01058976071051702
0 0 0
0 0 0
0 0 0
0 0 0
0 0 0
0 0 0
0 0 0
0 0 0
0 0 0
0 0 0
0 0 0
0 0 0
0 0 0
-0.721160828152157 0.6921871073504772 0.02835609910888833
-0.7471334167916596 0.6640215140845114 0.02944632992637638
-0.7734519920780955 0.6330908947440232 0.03111165284322834
-0.8024833020994215 0.5957523311868449 0.0331618717361962
-0.8305834795810927 0.5557231786032775 0.03609476707271385
-0.8577856128658652 0.5124633359573554 0.03981421429326674
-0.884084466683685 0.4652479314352622 0.04403428282409969
-0.9090084761613252 0.4139513943285071 0.04845444665198171
-0.9320193565762815 0.3585468709670989 0.05276419512165578
-0.9525220921516747 0.2991484726291171 0.05667323254114069
-0.96987744544871 0.2361074787330932 0.05992494719385193
-0.983461050988867 0.170072075631942 0.06228844417799771
-0.9927686963867959 0.1018359831270931 0.06355901206752385
-0.9974535351287804 0.03228749920706581 0.06359215874659187
-0.9973457930231922 -0.03762875732396292 0.06233334389548957
-0.9924618921118469 -0.1069589048680781 0.05982629334325711
-0.9830004456420256 -0.1747891022498789 0.0562040354624101
-0.9693253676003708 -0.2402876971182697 0.05167353616701847
-0.951940430121215 -0.3027324657479072 0.0465023836252267
-0.9314534241287011 -0.3615430957972285 0.04100132388439741
-0.908484003900381 -0.4164108410331229 0.0354799397860118
-0.8836167574184496 -0.4672363876520019 0.03019245043404699
-0.8573912404746274 -0.5140423232942255 0.02531305235750051
-0.8302918378035227 -0.5569353904848866 0.02093883717628829
-0.8023603199509691 -0.5965954926607336 0.0170802548304912
-0.7735847401713316 -0.6335428428840491 0.01378825603366367
-0.7475027521640726 -0.6641569420422718 0.01162720276741625
-0.7220248840489597 -0.6917846666773471 0.01067903386066402
0 0 0
0 0 0
0 0 0
0 0 0
0 0 0
0 0 0
0 0 0
0 0 0
0 0 0
0 0 0
0 0 0
-0.6659172432819214 0.7455000160911338 0.02799912691361574
-0.693768921076879 0.7196104417512577 0.02907741856462331
-0.721514272359505 0.6916950152584228 0.03122756231574833
-0.7499362759586214 0.6606205567300704 0.03429376075856822
-0.7794985162330779 0.6252382979323903 0.03819861239674342
-0.8092001683739443 0.5859560099344077 0.04301908791836576
-0.8386431853692282 0.5425034824694243 0.04865777576400877
-0.8674613864259947 0.4944696153709671 0.05486841108304559
-0.8951002322068128 0.4416275353991838 0.06132449983939288
-0.9208883712119932 0.3839112156966503 0.06765194918730214
-0.944073462021382 0.321448772319644 0.0734573691412585
-0.9638613226874462 0.2546216523439034 0.07835282244352404
-0.9794827531508735 0.1841002559284672 0.08197946112934108
-0.9902831103970201 0.1108012212787323 0.08403838780904833
-0.9957935673780989 0.03582741710236331 0.08433010940448459
-0.995779904141748 -0.03960906584032577 0.08278589499852661
-0.9902646316180589 -0.1142762087781046 0.07947897504153283
-0.9795200056693517 -0.187011542178987 0.0746139503400651
-0.9640340167217177 -0.2567997870365931 0.06850024803860558
-0.9444559082344605 -0.3228292877981812 0.06151656964378537
-0.9215284873627466 -0.3845278951801451 0.05406981419659849
-0.8960106817387308 -0.441585858495942 0.04654876783005324
-0.8686234453350447 -0.4939130857335 0.03928325286286821
-0.8400182220498038 -0.541582530645597 0.0325230552654126
-0.810744803198701 -0.5848023774376817 0.02643942944797695
-0.7811818935145498 -0.6239452262105261 0.02114719683828134
-0.7517466312049791 -0.6592386817668643 0.01677387654215953
-0.723464851334047 -0.6902286044162664 0.01353079930299651
-0.6960224632396801 -0.7179286428679962 0.01145401307335435
-0.6688037058410232 -0.7433662088762736 0.0104058903621776
0 0 0
0 0 0
0 0 0
0 0 0
0 0 0
0 0 0
0 0 0
0 0 0
0 0 0
-0.6097736180349624 0.7921062419366773 0.02727336124324809
-0.6363019502944942 0.7709111515514441 0.02856264107271926
-0.6637389720524283 0.747325319347332 0.03091025786358507
-0.6923005808959742 0.7207858624259572 0.0344622433681356
-0.7220218675406123 0.6907577998249472 0.03921842391229302
-0.7528492379844615 0.6566428595082874 0.04514620607531149
-0.784340706930355 0.618129806960601 0.0522034213327081
-0.8160784597414388 0.5747926181551756 0.0602444492078632
-0.8475708398663691 0.5261777614009838 0.06899735368306802
-0.878164165867158 0.4719441968809767 0.07807927264778937
-0.907050999305836 0.4119298580643996 0.08701882953319552
-0.9333029599296223 0.3462171004885478 0.09528538353760331
-0.9559257636282392 0.2751999699734851 0.102327469226792
-0.9739438205148456 0.1996269721081556 0.1076220539103166
-0.9865071753858473 0.1205887770818415 0.1107336432803605
-0.992995036621477 0.03945400067946225 0.1113743196410015
-0.9930945307149752 -0.0422404169245374 0.1094486191874691
-0.9868381092409612 -0.1229266586015185 0.1050694187420388
-0.9745922391326327 -0.2011459793116877 0.09854066383571181
-0.9570016486619191 -0.2756656023030735 0.09031234780057484
-0.9349032352853123 -0.3455545938554404 0.08091948664232052
-0.9092284440400087 -0.4102125998249039 0.0709172721801771
-0.8809118451742967 -0.4693558320344868 0.06082289015518564
-0.8508238876091437 -0.5229629417432745 0.05107322034963859
-0.8197289143881469 -0.5712093280472569 0.04200488623756641
-0.7882597682735715 -0.6144105013808796 0.03385666129716051
-0.7569122872108112 -0.6529671032793157 0.02679088472442681
-0.7261323389284565 -0.6872363592658627 0.02092875689787677
-0.6964194102009895 -0.7174482895621568 0.01636938910407755
-0.6679387894077912 -0.7441002054655983 0.01313993266756109
-0.6407891704516391 -0.767634901812761 0.0112203632210569
-0.6148995042199403 -0.7885339334667707 0.01062240469447572
0 0 0
0 0 0
0 0 0
0 0 0
0 0 0
0 0 0
0 0 0
0 0 0
-0.5821673176245309 0.812579733181119 0.02820268627559367
-0.6033693883613046 0.7968843775374506 0.03034254480518043
-0.6300068471569062 0.7758458362471624 0.03397956611487452
-0.6590250404991408 0.7511015820385656 0.03914600176607341
-0.689742096734858 0.7226008144267489 0.04586832220171065
-0.7219099565247254 0.6898667498140003 0.05412838600527246
-0.7552231289832017 0.6523507460990277 0.06384770561941822
-0.789291024065009 0.609441080675884 0.07484148926243443
-0.8235769432506959 0.5605255463506944 0.08678784727192428
-0.8573446039162033 0.5050899742965312 0.09921868776040627
-0.889649033432937 0.442816007461562 0.111528385838054
-0.919364440261498 0.3736836007645002 0.1230024085225136
-0.9452512868614382 0.2980698389103769 0.1328697701463209
-0.9660660523466785 0.2168172167530502 0.1403804723697885
-0.9807038538271035 0.1312391022691064 0.1449008251331427
-0.9883463480032061 0.04304484196833744 0.1460090338597096
-0.9885797947951876 -0.04581232207243257 0.1435660839788975
-0.9814523338977578 -0.1333372333197055 0.1377406929606859
-0.9674558437938469 -0.2176999839789493 0.1289802592829622
-0.9474398934516386 -0.297402973466611 0.1179369308976838
-0.922483584198699 -0.3713775346879501 0.1053696522392543
-0.8937580048688611 -0.4390035666523424 0.09204616884669524
-0.8624073370617876 -0.500065645517741 0.07866342959037873
-0.8294651475571752 -0.5546695889812494 0.06579677839624572
-0.7958073605967101 -0.603148108372262 0.05387953402785938
-0.7621354120661921 -0.6459741861418764 0.043208384753836
-0.7289885932837048 -0.6836826221979152 0.03396620330309621
-0.696796004039821 -0.7167887720627937 0.02625233320771653
-0.6659362441113169 -0.745737655679964 0.02010640892510341
-0.6367636323511652 -0.7709028369120779 0.01552071376772416
-0.6100753794074137 -0.7922450076292458 0.01248516429350584
-0.5889862130972694 -0.8080673665122841 0.01106218600634457
0 0 0
0 0 0
0 0 0
0 0 0
0 0 0
0 0 0
0 0 0
-0.5023335955152957 0.8641625893788197 0.02973176642529356
-0.5362682297061289 0.8435034322532127 0.03030421727918108
-0.5635161278686339 0.8254370082289171 0.03321624719975609
-0.591482769483847 0.805411612844746 0.03821344395029925
-0.6211589944218024 0.7823797297562046 0.04520466917811453
-0.6526885613713251 0.7556855461477997 0.05419406977087612
-0.6860386973909034 0.7246402214817721 0.06517250258383764
-0.7210367806893671 0.6884859475753519 0.07805806098272365
-0.7573528342897113 0.6464006695120386 0.0926437199583906
-0.7944495955354878 0.5975499670786252 0.1085535674118244
-0.8315312687795733 0.5411813303285894 0.125213883996986
-0.8675194447424001 0.4767490607580355 0.1418462056601027
-0.9010715891792865 0.4040621060969795 0.1574922397783069
-0.9306563980596056 0.323434650180332 0.1710809627440957
-0.9546939442540532 0.2358011452063571 0.1815414352813393
-0.9717498450487182 0.1427475263897293 0.1879504784708066
-0.9807468861018379 0.04642217155457599 0.1896853378353358
-0.9811396104761229 -0.05067687163091362 0.1865393241020906
-0.9729998639442504 -0.1459971567633904 0.1787626778202754
-0.9569877025231539 -0.2372356001324331 0.1670143923416755
-0.9342208169387382 -0.3225741636867056 0.1522411709102977
-0.9060864540886435 -0.4008005972222984 0.1355220239788234
-0.8740490168913014 -0.4713100331976703 0.1179201792678399
-0.8394941878078797 -0.5340177620235489 0.1003720004789584
-0.8036284464957983 -0.5892268888560614 0.08362411991618054
-0.767432274612639 -0.6374906879385562 0.06821529648470796
-0.7316553648333938 -0.679493322019745 0.05449084731479092
-0.6968419929783412 -0.7159563096025315 0.04263566068794072
-0.6633765127007837 -0.7475703933221386 0.03271252703673967
-0.631525988340808 -0.7749613436214985 0.02469497808314187
-0.6014528535487388 -0.7986943541777271 0.01848765974108567
-0.5731810813177719 -0.819310356468685 0.01392795040719677
-0.545973543234029 -0.8377338714792042 0.01071684024996669
-0.5130244533119944 -0.8583340608064587 0.008279514685255266
0 0 0
0 0 0
0 0 0
0 0 0
0 0 0
-0.4357798614219781 0.8995868637993314 0.02897217386949214
-0.4650936289679934 0.8847527830308656 0.03000715268931893
-0.4934422885682863 0.869178881293058 0.03229210687830467
-0.5206342678585315 0.8529917033573624 0.03667578403955007
-0.5486810235651356 0.8349059262483621 0.04337313333019618
-0.5784814591788546 0.8140057048794453 0.05247774585498308
-0.6103947730988627 0.7895016786855916 0.06407277367353688
-0.6445476241922956 0.7605541926303661 0.07820281465803579
-0.6808935545304883 0.7262184407581548 0.09481953227911839
-0.7191897500308776 0.6854442644955189 0.1137201113291757
-0.7589372936301834 0.6371247377617878 0.1344851399570418
-0.799313142209355 0.5801979047552083 0.1564253560298745
-0.8391215405285459 0.5138037382335241 0.178551837846199
-0.8767932748493314 0.4374897214631367 0.199590322393374
-0.9104618564535729 0.3514375925090065 0.218061520022645
-0.9381365005436869 0.2566545821550715 0.232439953120048
-0.9579640637372135 0.1550519659595456 0.2413788317979914
-0.9685306306363948 0.04934301650505812 0.2439542667002325
-0.9691186537967938 -0.05725582275389553 0.2398558017306729
-0.9598340190983909 -0.161459037407813 0.2294550827956784
-0.941559821924461 -0.2603583696153332 0.213725574297561
-0.9157595890747 -0.3517546062843883 0.1940439949481842
-0.8842038269018501 -0.4343029958109961 0.1719433055449272
-0.8487040399181165 -0.5074773910134051 0.1488897250883867
-0.8109127247965919 -0.5714123585134323 0.126128780621564
-0.7722091897172287 -0.6266972488199254 0.1046113074088876
-0.7336613790062587 -0.6741798448561525 0.08498539724192979
-0.6960405047617523 -0.7148102471698536 0.06763080860064465
-0.6598655064997858 -0.7495324328276796 0.05271285868932583
-0.6254576889418961 -0.7792198138853157 0.04023879958442489
-0.5929856585041663 -0.8046500287778393 0.03010548116542791
-0.562477566586251 -0.8265162595976138 0.02213277452057403
-0.5337587292287307 -0.845483898049136 0.01608095493956826
-0.5061536774395344 -0.8623644756524911 0.01166044368965038
-0.4779109938959659 -0.8783660543502902 0.00861141559048683
-0.4492629611494579 -0.8933714442947299 0.007089023766934535
0 0 0
0 0 0
0 0 0
0 0 0
-0.4049936174839174 0.913866141684466 0.02878966620225282
-0.4246371348788029 0.9048404748510723 0.03077366980401874
-0.4487112422510459 0.8930079588335692 0.03456886659155551
-0.4742738794327092 0.8794395943424201 0.0406237269423522
-0.5014366849977868 0.8637902710191545 0.04927087000536189
-0.5306730853006818 0.8453960030795993 0.06075915169332938
-0.5623543874405807 0.8234612931869935 0.07529303785299551
-0.5967152984750754 0.7970439544689429 0.09301498379460327
-0.6338360643262915 0.7650271949786734 0.1139527731229889
-0.6735902673325568 0.7261179042228173 0.1379454273323967
-0.7155618365624091 0.6788906554549995 0.1645561788305517
-0.7589471865890606 0.6218971891922558 0.192984595352377
-0.8024692791676671 0.5538583086452992 0.2220000674249733
-0.8443423907515483 0.4739413531443744 0.2499310324062189
-0.8823355575474835 0.3820933942289826 0.2747518916658194
-0.913975375533232 0.2793511043693251 0.2942991223339361
-0.9368913413896613 0.1680038204769701 0.3066094107072095
-0.9492403402402048 0.05148758273032988 0.3103092091531395
-0.9500826160579736 -0.06603424185300609 0.3049303224793085
-0.9395698243082621 -0.1803119438066537 0.2910260266196252
-0.9188728012308692 -0.2876678893787637 0.2700369615043506
-0.8898882223353216 -0.3854614439966549 0.2439639869753197
-0.8548462524480132 -0.4722532191680034 0.2149762351076158
-0.8159503508551582 -0.5476962008109791 0.1850780823235503
-0.7751293754896574 -0.6122655160516958 0.1559018572915793
-0.7339182712192206 -0.6669470157601224 0.1286298928680934
-0.69344078584057 -0.7129665637439877 0.1040122854085152
-0.6544542227972029 -0.7515941540608226 0.08243723578883826
-0.6174208349574848 -0.7840236360945837 0.06401914249214401
-0.5825812570286123 -0.8113132097865411 0.04868217933516349
-0.5500132845926224 -0.8343697346488079 0.03622889280273627
-0.5196656296864235 -0.8539620179826803 0.02639138430549499
-0.4913643123712682 -0.8707496951203958 0.01887010799248251
-0.4648384433147795 -0.8852944765020171 0.0133757800412302
-0.44015709463008 -0.8978682890906888 0.009709144770015877
-0.4203177165624532 -0.9073426930849494 0.007890148862715544
0 0 0
0 0 0
0 0 0
-0.3254234280544551 0.9451612148039894 0.02774654038854104
-0.3553481522139935 0.9342830901214318 0.02903098743150763
-0.3775284580166788 0.9254437793437141 0.03203240018436575
-0.3999983341795595 0.9157596893454371 0.03722262784282063
-0.4238110519113557 0.9046328581897529 0.04498426570733251
-0.4494575041744291 0.891562709409275 0.05571254016902293
-0.4774088508754597 0.8759059956078853 0.06978163056228852
-0.5080900514883229 0.8568445230283146 0.08753263925515217
-0.5418453157196472 0.8333485603643956 0.1092420741805298
-0.578894537526224 0.8041392585574262 0.1350598655004929
-0.6192603236741835 0.7676712864437208 0.1649164864189977
-0.6626603950502472 0.7221618437399961 0.1984022990741259
-0.7083735291046875 0.6656991371591154 0.2346307781374363
-0.7551040999494223 0.5964662056048951 0.2721136964779084
-0.8008935493980589 0.5131019676196775 0.3087003293768791
-0.8431496442886341 0.4151766447476936 0.3416533784290685
-0.8788667463814389 0.3036782519997352 0.3679303757061766
-0.9050648997238921 0.1813194014365994 0.3846827289474454
-0.9193738821813341 0.05244937291866555 0.3898727074870214
-0.9205743698222991 -0.07752999241468947 0.382794892732981
-0.9088734811877319 -0.2031115127990224 0.3642728490598571
-0.8857953274118218 -0.3196535897051155 0.3364345709406458
-0.8537521205365983 -0.4240257512977451 0.302174583503715
-0.8154938865599928 -0.5147722145627696 0.2645359863939474
-0.7736350655507842 -0.5918719868002668 0.2262218746968068
-0.7303621250430676 -0.6562971204453919 0.1893284342027384
-0.6873242234113106 -0.709558297289872 0.1552817911383555
-0.6456531145408803 -0.7533460332380632 0.1249072051089734
-0.6060490948070147 -0.7892976954597442 0.09855781361989788
-0.5688856319802069 -0.8188741038463297 0.07625181818389803
-0.5343047687889161 -0.8433140144784851 0.05779175575809608
-0.5022907469478907 -0.863636091812131 0.04285681334394685
-0.4727186370243077 -0.8806655146270703 0.03106994619431241
-0.4453838084310165 -0.8950682727506352 0.02204654854341646
-0.4200309981772389 -0.9073785260921025 0.01543278837913842
-0.3963855342621128 -0.9180190832875699 0.01093027664737805
-0.3736568645804484 -0.9275302547111648 0.008256763733424584
-0.344388898599294 -0.938800727522655 0.007034239439927779
0 0 0
0 0 0
-0.2943000790693758 0.9553217504540521 0.02734623500894063
-0.3098630996966005 0.9503230671596016 0.02951148032175322
-0.328069004485496 0.9440551188198061 0.03362530187249738
-0.3478288495891734 0.9366976075368332 0.04015822989431201
-0.3692448631605442 0.928007636002785 0.04959897730873983
-0.3926546274621834 0.9175637645327828 0.06244262605753544
-0.4185007447569996 0.9047573897332789 0.07919086033665479
-0.4472550154803954 0.8887606997906511 0.1003362827458885
-0.4793648093482689 0.8684768262387808 0.1263225310255922
-0.5151950566742542 0.842482691090604 0.157470533088401
-0.554942202038074 0.8089847860993417 0.193862756239911
-0.5985066854181048 0.7658195485429334 0.2351811356791413
-0.6453230568966272 0.7105456205747743 0.2805050326101135
-0.6941679274975977 0.6406880420298904 0.3281001695116821
-0.7429997314185789 0.5541877166050325 0.3752697348255242
-0.7889258168200727 0.4500554785312433 0.4183851357287854
-0.8284144121316311 0.3291088909570984 0.4532294117393445
-0.857823993523908 0.1945092706596955 0.4757143468113261
-0.8741778688192722 0.05173474362119038 0.4828421791528205
-0.8759210476738464 -0.09222183433283736 0.4735582873461697
-0.8633156995107173 -0.2302438902469868 0.4490810104894813
-0.8382830954535815 -0.3565131676542197 0.4125285604245062
-0.8037974736973648 -0.4673904445094217 0.3680431953711666
-0.7631410823608483 -0.5615363513142727 0.3198321662462451
-0.719308250747475 -0.6394526493207479 0.2714699793407802
-0.6746823602285351 -0.702793244336395 0.2255778546568278
-0.6309581140819008 -0.7537277545828408 0.1838105825183068
-0.589215109144385 -0.7944885354520825 0.1470153807979792
-0.5500532057194788 -0.8271115748842209 0.1154465831900966
-0.5137316143006724 -0.8533256039307122 0.08896764661555066
-0.4802846360495623 -0.8745337051328949 0.06721210427645943
-0.4496066062785159 -0.8918429318385471 0.0496999448726003
-0.421510351311096 -0.9061120267871764 0.03591682960996058
-0.3957710224393015 -0.9179987967757767 0.02536743809641689
-0.3721763612208615 -0.9279949040786148 0.01761289733464539
-0.3506076169289259 -0.9364417038278331 0.01229773489076989
-0.3311783543148862 -0.9435236761404027 0.009163525292353453
-0.3151505036456844 -0.9490079243057438 0.008007475056137046
0 0 0
0 0 0
-0.2505441560508168 0.9676987519700003 0.02804908740916497
-0.2610533555497456 0.964839366218802 0.03059645323755188
-0.2755942311330652 0.9606176301394752 0.0355188461438786
-0.2922452468793666 0.9553660537564445 0.04322521262244636
-0.3106818614230558 0.9489653034745127 0.05423683051424056
-0.3311146298826913 0.9410546780035286 0.06913172126688802
-0.35396172115758 0.9310597927754869 0.08853678462667514
-0.3797293757480847 0.9181569537342543 0.113107955084529
-0.4089493498687536 0.9012061516097706 0.1434848477806289
-0.4421187550273873 0.8786674951993741 0.1802066572940358
-0.4796120439730279 0.8485205280677715 0.2235737031128752
-0.5215442504944409 0.8082217375161501 0.2734396053657306
-0.5675748674068425 0.7547607932293389 0.3289299543853121
-0.6166627577961084 0.6849046523100327 0.3881142362647504
-0.6668246447800472 0.5957281137171153 0.4477196752891378
-0.7150122757802684 0.4854755205852878 0.5030615910561695
-0.7572768285562689 0.3546293725326329 0.5484248472387714
-0.7893598960097364 0.2067913152195036 0.5780556258019514
-0.8076643740156662 0.04878635295441519 0.5876207541529558
-0.8102639300247882 -0.1104134153561655 0.575570361823966
-0.7974497345971785 -0.2616998907719956 0.5436792142070677
-0.7715195167999294 -0.3978770283701965 0.496438823514141
-0.7359663583914852 -0.514829969181098 0.4396630779915057
-0.6945231135990061 -0.6115284223390222 0.3790390921109431
-0.6504547933883368 -0.6892312528119412 0.3191689864404393
-0.6062307845845637 -0.7504651995228202 0.2632227576163527
-0.5635006788113341 -0.7981758914230368 0.2130310571963756
-0.5232316245185892 -0.8351876291510361 0.1693820864693457
-0.4858921515667997 -0.8639396837346662 0.1323519547049857
-0.4516197076577871 -0.8864086515058545 0.1015841630898569
-0.4203491226230398 -0.9041322649902034 0.07649485285772234
-0.3919021733465033 -0.918275873213469 0.05641016929887134
-0.3660483951606217 -0.929707446654051 0.04065262643836895
-0.3425539778187068 -0.9390629299341032 0.02859345911494492
-0.3212443198704983 -0.9467917232231249 0.01968552227212152
-0.3021310387254528 -0.9531709740267625 0.0134881322484241
-0.2857492081463728 -0.9582554324182748 0.009691041460315363
-0.2742212332834768 -0.9616325707133293 0.008094081773882584
0 0 0
0 0 0
-0.1988364838268545 0.9795922015369724 0.02937977854443375
-0.2078812522185869 0.9776304751611233 0.03200060956087944
-0.2198276974239032 0.9748182379688582 0.03748581556528691
-0.2333638346115862 0.9712922206564154 0.04618162824873828
-0.2483731661906431 0.96689022010593 0.0586009605718252
-0.2651276555984825 0.9612617359790732 0.07538700935406943
-0.2840652393315871 0.9538563987741124 0.09728777066604291
-0.3057163208769456 0.9438645700344761 0.1251287520240551
-0.3306647537451106 0.9301269194113481 0.1597646219193731
-0.3595028904429723 0.9110203200469698 0.2019892279916539
-0.3927554674314738 0.8843348224863238 0.252378811592349
-0.4307496565450417 0.8471768877494281 0.3110402775357572
-0.473412148677356 0.7959700694121433 0.377243404295842
-0.5199908154279248 0.7266724994492808 0.4489505879434131
-0.5687421238884895 0.6353672636244988 0.5223416859002601
-0.6167054791039255 0.5193420746743986 0.5915726172804897
-0.6597761565591579 0.378561365798593 0.6491430624760067
-0.6932954805032502 0.2170161039310003 0.6872011258346249
-0.7131690786444529 0.04305435710981035 0.6996686269937238
-0.7171166485861982 -0.1320168443498473 0.6843356377746276
-0.7053837775920716 -0.2967573676682718 0.6437148367441412
-0.6804949437087788 -0.4424573545718649 0.5840874257951906
-0.6462569968621531 -0.5646293689924725 0.5133668957752074
-0.6066264327780381 -0.6627862960203743 0.4389973768288195
-0.5649318589101701 -0.7391758078277746 0.36670304049797
-0.52357244793243 -0.7973521491540879 0.300169022394715
-0.4840577269866824 -0.8411046623945866 0.2413111349328385
-0.4472013148969424 -0.8738542031043464 0.1907611482228838
-0.4133382311109304 -0.8984140427053305 0.1483364910328904
-0.3825051777736662 -0.9169675432022865 0.113403323099008
-0.3545696217421881 -0.9311468479772859 0.08512303354302175
-0.329314352145147 -0.9421425969996972 0.06260498694104112
-0.3064917616573494 -0.9508093206743724 0.04499373017335236
-0.2858635656708374 -0.9577519769337594 0.03151463947802143
-0.2672460304604756 -0.9633885697191868 0.02149471882899202
-0.2505980443246891 -0.9679845660504327 0.0143701102569161
-0.236266159351828 -0.9716400355941313 0.009692428785979239
-0.2258254706378459 -0.9741412804896303 0.007184876980041867
0 0 0
-0.1055559469806727 0.9939784842592219 0.02940603486960329
-0.1361288347336115 0.9902347188642358 0.03006895259127404
-0.1502940101404302 0.9880876466886511 0.03308342450821911
-0.1611020870463671 0.9861605584442605 0.03915955206853325
-0.1716118464150073 0.9839587577361691 0.0487292237197143
-0.1828074620069343 0.9811688770339181 0.06236238108493503
-0.1952395688720822 0.9774227161566938 0.08078579508498894
-0.2094028656508047 0.972189678351712 0.1048697724018928
-0.2258289616826178 0.964682383956382 0.1356067039256595