# OOMMF: rectangular mesh v1.0
# Segment count: 1
# Begin: Segment
# Begin: Header
# Title: 
# Desc: time = 2.42e-09
# Desc: stepsize = 2.9479933806327924e-14
# Desc: step = 15486
# meshunit: m
# valueunit: (none)
# valuemultiplier: 384000.0000000001
# xmin: 0
# ymin: 0
# zmin: 0
# xmax: 9.357999999999999e-08
# ymax: 9.357999999999999e-08
# zmax: 2.3395e-08
# ValueRangeMaxMag: 1
# ValueRangeMinMag: 0
# meshtype: rectangular
# xbase: 1.16975e-09
# ybase: 1.16975e-09
# zbase: 1.16975e-09
# xstepsize: 2.3395e-09
# ystepsize: 2.3395e-09
# zstepsize: 2.3395e-09
# xnodes: 40
# ynodes: 40
# znodes: 10
# End: Header
# Begin: Data Text
0 0 0
0 0 0
0 0 0
0 0 0
0 0 0
0 0 0
0 0 0
0 0 0
0 0 0
0 0 0
0 0 0
0 0 0
0 0 0
0 0 0
0 0 0
0 0 0
-0.9872882432792897 0.1586548768697559 0.009516024796943854
-0.9917622582823966 0.1276604248355796 0.01050899507086106
-0.9962519533969454 0.0857802813866553 0.01112603604146498
-0.9991473413143834 0.03969150326268731 0.01136551420510586
-0.999906262110085 -0.00757420265747921 0.01140607062666451
-0.998487110699352 -0.05377364461436795 0.01148411564496106
-0.9953283545570908 -0.09581560852721718 0.01186742504642209
-0.9918344972605209 -0.1268958897915596 0.0127186161974294
0 0 0
0 0 0
0 0 0
0 0 0
0 0 0
0 0 0
0 0 0
0 0 0
0 0 0
0 0 0
0 0 0
0 0 0
0 0 0
0 0 0
0 0 0
0 0 0
0 0 0
0 0 0
0 0 0
0 0 0
0 0 0
0 0 0
0 0 0
0 0 0
0 0 0
0 0 0
0 0 0
0 0 0
-0.9299132235815206 0.367588990268926 0.01182078006290123
-0.9409458533274946 0.3383082517435134 0.01297797781012252
-0.9546904807234275 0.2973003226501072 0.01336428704466644
-0.9684831712675062 0.2487480339500335 0.01283598759840839
-0.9818397823801955 0.1893380807946558 0.01190516260307483
-0.9900094983554465 0.1404611023202269 0.01232363180979457
-0.9956940944585055 0.09180858429750648 0.0128239662251336
-0.9990280100289014 0.04208911054159125 0.01309740247188112
-0.99988012434901 -0.008146967185322622 0.01316677095908175
-0.9982268142305275 -0.05805271286604848 0.01315712278817901
-0.9941662106005408 -0.1070501808284832 0.01318349288881635
-0.9876074848181312 -0.1563931137061354 0.01313963152085284
-0.9762429952253292 -0.2163362352942892 0.01217569596248769
-0.9639926851797693 -0.265714401490793 0.01067519368850366
-0.9514709064773839 -0.3075804823872984 0.009867166842687196
-0.9412839960806456 -0.3374621120239578 0.01018634727369447
0 0 0
0 0 0
0 0 0
0 0 0
0 0 0
0 0 0
0 0 0
0 0 0
0 0 0
0 0 0
0 0 0
0 0 0
0 0 0
0 0 0
0 0 0
0 0 0
0 0 0
0 0 0
0 0 0
0 0 0
0 0 0
0 0 0
-0.881573145843447 0.4719213839861699 0.01090852255193008
-0.8963624951718361 0.4431618290446755 0.01191094148659542
-0.9177900264405995 0.3968636819889849 0.01267616993847043
-0.9349046793959631 0.3546261400092663 0.01391191092765038
-0.9508468408295115 0.3093072693974697 0.01480872656300567
-0.9655375625672621 0.2598177063604372 0.0152307167681414
-0.978448663731605 0.205907356200226 0.01550397060332927
-0.9881311940739349 0.1527677973400016 0.01608550260026282
-0.9949012299773603 0.09947122209772168 0.01664387466670027
-0.9988132136547545 0.04565513830920231 0.01696386084088394
-0.9998194553497184 -0.008490373460931335 0.01699912535061266
-0.9978975103498919 -0.0626004481293644 0.01678519381745455
-0.9930595985529164 -0.1164701840115229 0.01635022807919652
-0.9852450255074248 -0.170436157839037 0.01561268118997943
-0.9741648443727687 -0.2253803169557649 0.01437249863794119
-0.9610496096382959 -0.2760747862922585 0.01289806914860129
-0.946440328839262 -0.3226627918202336 0.01180790927308537
-0.9304942029618518 -0.366130409443899 0.01136052528848498
-0.9104206032934841 -0.4135332024214661 0.01116313548133062
-0.8964330296031423 -0.4430338956324938 0.01134860155384361
0 0 0
0 0 0
0 0 0
0 0 0
0 0 0
0 0 0
0 0 0
0 0 0
0 0 0
0 0 0
0 0 0
0 0 0
0 0 0
0 0 0
0 0 0
0 0 0
0 0 0
0 0 0
0 0 0
-0.8447997057048445 0.5349614396304063 0.01138926466328089
-0.8657198438355589 0.5003842082224542 0.01203312722954954
-0.8861562886651797 0.4631916865309172 0.01343479020299878
-0.9074058900203864 0.4199862327161655 0.01503712356778156
-0.9270014446837802 0.3746805169596047 0.01681760283354718
-0.9450056610167462 0.3265321744582286 0.01846725994517593
-0.9611918827581096 0.2751654088781784 0.0198535205146254
-0.9751069631241949 0.2207342855359753 0.02104247265964802
-0.9860823170842947 0.1647807017336855 0.02211298871301271
-0.9939148732366355 0.1077376669241883 0.02293076284676981
-0.9984809015769778 0.04990184774994745 0.02336011081236073
-0.9996927023745432 -0.008350741690195708 0.02334022134226934
-0.9975178409594361 -0.06659669475695215 0.02287000688836689
-0.9919837090366601 -0.1244417463267689 0.02196753916610193
-0.9831649256573379 -0.1815509744639356 0.02063910435062324
-0.9712206974178481 -0.2374288771357842 0.01891785424482836
-0.9567374705780397 -0.2904542888502051 0.01702111866053135
-0.9401630280015005 -0.3403818640839124 0.01528618270889874
-0.9217678293030226 -0.3874928218809792 0.01390618037812421
-0.9015837238229945 -0.432413027470131 0.01287488297334968
-0.8820095457812716 -0.4710708530443217 0.01230498121938934
-0.8620520935126488 -0.5066737153774844 0.01216282105578248
0 0 0
0 0 0
0 0 0
0 0 0
0 0 0
0 0 0
0 0 0
0 0 0
0 0 0
0 0 0
0 0 0
0 0 0
0 0 0
0 0 0
0 0 0
0 0 0
-0.7722688745603883 0.6351707817189801 0.01260410392413117
-0.792464930506083 0.609773583147013 0.01324806453943593
-0.8231636176540774 0.5676475522966786 0.01333847600893822
-0.8486696559432046 0.5287204099098337 0.01464729415350914
-0.8725247782808799 0.4882827473880949 0.01674723526540017
-0.8956674254830151 0.4443075311886274 0.01925306878639512
-0.9174794196809621 0.3971774325310195 0.02194542207276759
-0.9376140915287269 0.3468068710732641 0.02459287586135578
-0.955679793098411 0.2931646724125881 0.02702975975840888
-0.9711975872978144 0.2364836572330305 0.02916721256126132
-0.9836423140588227 0.1774581693056856 0.03092565504040643
-0.992647796199051 0.116683346563277 0.0321768447172984
-0.9979621455782178 0.05473195177286758 0.03280197323411698
-0.9994336551235484 -0.007796661448942829 0.03273501300800144
-0.9970148534523088 -0.07028072582815854 0.03196875932121891
-0.990766417135847 -0.1320949505117372 0.03054227766715965
-0.9808596730647197 -0.1926141744767776 0.02853211429249736
-0.9675930766589245 -0.251165482117216 0.0260679610737542
-0.9514359570331682 -0.3069588865721449 0.02336368161843872
-0.9328547042612165 -0.3596591262090144 0.02067398539919284
-0.9122671786493505 -0.4091914290689517 0.01819255715017133
-0.8900777306078658 -0.4555271719243 0.01601964776766408
-0.8669655642327214 -0.4981656293248121 0.0142026826357576
-0.8421798360657202 -0.5390490243453518 0.01262034376077723
-0.8124807256158997 -0.5828869138341342 0.01085892184237929
-0.7927890131381522 -0.6094120896214038 0.01012352066764921
0 0 0
0 0 0
0 0 0
0 0 0
0 0 0
0 0 0
0 0 0
0 0 0
0 0 0
0 0 0
0 0 0
0 0 0
0 0 0
-0.725828306454573 0.6877761789810226 0.01171311980430006
-0.7506694206163922 0.6605542803771396 0.01278528947222866
-0.7758547307336661 0.6307494786277132 0.01430146877274071
-0.80361792723571 0.59492802785832 0.01608939694302711
-0.8305333297829117 0.5566571127819276 0.01863456221640807
-0.8566526728265167 0.5154293030542354 0.02188222320079644
-0.8819915173018239 0.4705692565663511 0.0256034798849132
-0.9061316604413219 0.4219616443004924 0.02955984920592717
-0.9286002872787239 0.3695656460553805 0.03350730847949503
-0.948875591018852 0.3134481307839577 0.03722072106591588
-0.9663899990025596 0.253870027948604 0.04050158931705305
-0.9805724752089323 0.1913492175118084 0.04316361685778265
-0.9909402107735068 0.1265307692806875 0.04502735943173607
-0.9971310785988131 0.06015231888803052 0.04594900025854447
-0.9989239932005197 -0.006980018172087319 0.04584904747804959
-0.9962530322691349 -0.07402453736691536 0.0447243061675381
-0.9892128157870838 -0.1401404695686159 0.04264567822975669
-0.9780543513083805 -0.2045227249794303 0.03975098556930008
-0.9631724945536173 -0.2664309338260507 0.03623952587907097
-0.945079921767598 -0.3252332178897268 0.03236194451579506
-0.9243259415071486 -0.3805468598287719 0.0283838216486686
-0.901452907474543 -0.4321813815710899 0.02453383437207559
-0.8769879642050088 -0.480054283991294 0.02097605923808972
-0.8514320420150643 -0.5241625100899729 0.01780844873188133
-0.824899914062533 -0.5650782094556565 0.01505818641185686
-0.7974743277937895 -0.603217383977971 0.01278609309430196
-0.7725275749140204 -0.6348776837576831 0.01146615297042764
-0.7481706558038174 -0.6634114264630275 0.01122270165229555
0 0 0
0 0 0
0 0 0
0 0 0
0 0 0
0 0 0
0 0 0
0 0 0
0 0 0
0 0 0
0 0 0
-0.6730603914940533 0.7395016744081172 0.01126867114891028
-0.6996608989180775 0.714369292503826 0.01229391933965143
-0.7261996350845952 0.6873371209089312 0.01420465499834004
-0.7533889748040233 0.6573593023394186 0.01684637265332866
-0.7816541816609794 0.6233862847756569 0.02015639465547831
-0.8100607520565856 0.585844911582588 0.02423463534505892
-0.8382553418610834 0.5445044805467757 0.02903192218650794
-0.8659225970127959 0.4989958014375258 0.03436926141678875
-0.8925801039573765 0.4491110411612875 0.0400003840789366
-0.9176455851384963 0.3947702897279006 0.04563987756310955
-0.9404652221464929 0.3360442413429534 0.0509846427190197
-0.9603399685797115 0.2732056766998109 0.05572973144845249
-0.9765742525091433 0.2067675212070501 0.05958121776280896
-0.988548214013338 0.1374556774960827 0.06227652282466974
-0.9957782676790162 0.06617121698644703 0.06361612736334525
-0.9979638609613163 -0.006061696583240558 0.06349321262713592
-0.9950165911261257 -0.07816098013103817 0.06190997148036165
-0.9870680797773519 -0.1490577741751874 0.05897784196280381
-0.9744555279590016 -0.2177657199516021 0.05490460130174197
-0.9576866985076342 -0.2834412652155634 0.04997235910528506
-0.9373873939599427 -0.3454330111138345 0.04450739801219312
-0.9142338122917244 -0.4033211002478193 0.03884104217741246
-0.8889017096290176 -0.4568882066310299 0.03327036609492236
-0.8620344439350013 -0.5060738134390623 0.0280341367071893
-0.8342085264591766 -0.5509562792992103 0.02330906869823378
-0.8058622949968811 -0.5917907568681672 0.01922658544205522
-0.7774783772464414 -0.6287079150296911 0.01592892002798578
-0.7500997683060556 -0.6611843319321581 0.01362412546282409
-0.7235157370693246 -0.6901970106275611 0.01237193330927902
-0.697282738290281 -0.7166952003489225 0.01203215189503022
0 0 0
0 0 0
0 0 0
0 0 0
0 0 0
0 0 0
0 0 0
0 0 0
0 0 0
-0.6194637523929506 0.7849549546587121 0.01050612335658885
-0.6448013678701375 0.7642598715913673 0.0117492411646681
-0.6710619283579878 0.7412723319485512 0.01382816676260698
-0.6984152493179812 0.7154940281122665 0.01686520844178039
-0.7268627490418234 0.6864657493452773 0.02086430040019065
-0.7563364655868088 0.6536733521210265 0.02581277882200595
-0.7864228957507126 0.6168742536630055 0.03170464014577512
-0.8167496037773809 0.5757095124224872 0.03845311477309204
-0.8468909508931277 0.5297846794214403 0.04586840683580448
-0.8762855566222378 0.4787933684141973 0.05367060292041345
-0.9042421242775013 0.4225672436458622 0.06150695310003277
-0.9299629430893971 0.3611257016884373 0.06897211074441648
-0.9525819815242564 0.2947324332557105 0.07563306989993585
-0.9712262989016651 0.2239386151592399 0.08106153811971804
-0.9850989567648283 0.1495865765133859 0.08487580048430318
-0.9935650862052604 0.07277524460360076 0.08678815153475117
-0.9962255077081625 -0.005211495957004577 0.08664628152150201
-0.9929638427338494 -0.08300494935747825 0.08445700329391945
-0.983957798595942 -0.1592642384049946 0.08038627337738632
-0.9696528260171239 -0.232782889950357 0.07473635757356986
-0.9507043539846517 -0.3025723315829931 0.06790593107421797
-0.9279008891474912 -0.3679115548877641 0.06034092889044895
-0.9020832634318464 -0.4283587091593089 0.05248430359183488
-0.8740786788159141 -0.4837202912588656 0.04473413756700548
-0.8446540101826223 -0.5340032408172235 0.03741846975914765
-0.8144822178533001 -0.5793709564567772 0.03078979725701768
-0.7841259910979087 -0.6200963992359104 0.02503768638233357
-0.7541071029338929 -0.6564372046350528 0.02031437115856709
-0.7249962492943394 -0.6885491920532716 0.01674660060807447
-0.6970564595888618 -0.7168718307956553 0.01438993944137443
-0.6705069472325762 -0.7417851829139347 0.01323541167441096
-0.6454227346739706 -0.763710249993752 0.01327206165045025
0 0 0
0 0 0
0 0 0
0 0 0
0 0 0
0 0 0
0 0 0
0 0 0
-0.5930792848397829 0.8050625693647315 0.0114551866762584
-0.613459136211515 0.7896135700607015 0.01335283395444462
-0.6390525211439214 0.7689870761511887 0.01645454138052307
-0.666912434950353 0.7448463165036595 0.02077904953361799
-0.696357985864727 0.7172104899220848 0.02635656783693067
-0.7271336291625747 0.6856931820410286 0.03318953816056132
-0.7589493574370293 0.6498423145953142 0.04124122945941703
-0.7914568544092259 0.6091439269243045 0.05039567342431697
-0.824193840542124 0.5630742730846169 0.06043075543673095
-0.856535032087908 0.5111803847036641 0.07100952823656533
-0.8876812968886099 0.4531551275544048 0.08168442645514622
-0.9166765915547295 0.3889161381046655 0.09191443856846171
-0.9424531916240919 0.3186865945836443 0.101098150478838
-0.9639099971647253 0.2430599239679003 0.1086250004677431
-0.9800206193262245 0.1630233682190146 0.1139428238634198
-0.9899540807375935 0.07992428279179264 0.1166320155497762
-0.9931834707179753 -0.004625410374222159 0.1164697345728313
-0.9895570224555557 -0.0888941617850566 0.1134668555545034
-0.9793140800523085 -0.1711976006439518 0.1078671133620166
-0.9630430052497798 -0.250052791293062 0.1001087988441586
-0.9415935754674201 -0.3242903415412725 0.09075964423423041
-0.9159667543530717 -0.3931083247313271 0.08044097181678082
-0.8872065391555457 -0.4560685330793298 0.06975707859785202
-0.8563131488443361 -0.5130479457361306 0.05924184747484944
-0.8241843561958228 -0.5641691541391577 0.04932861765733797
-0.7915834829504276 -0.6097278396593019 0.04034291839307085
-0.7591358072680289 -0.6501197865508044 0.03251290910782968
-0.727365572603583 -0.685757906003166 0.02598880807606029
-0.6967469473476687 -0.7170136743059273 0.02085862459553973
-0.6677334088050449 -0.7442028161585175 0.01715410118093363
-0.6412135798638192 -0.7672182254792425 0.01487748267374481
-0.6203322425752995 -0.7842137760890801 0.01402363054295039
0 0 0
0 0 0
0 0 0
0 0 0
0 0 0
0 0 0
0 0 0
-0.5170454354639907 0.8558558504343486 0.01322047439198386
-0.5494659018350023 0.8354060978987026 0.01356002633884538
-0.575677926751583 0.8175206062239342 0.01596818869657224
-0.6026406511315304 0.797758994111144 0.02012046019702085
-0.6312297420223175 0.7751633620200675 0.02589932370128124
-0.6615366506715916 0.7491729521075953 0.03330386837294504
-0.6935018899842701 0.7192095610654716 0.0423407116172634
-0.7269538442013281 0.6846402542837851 0.05297009170413877
-0.7615975937793247 0.6447760067299608 0.06506155773502421
-0.7969732637961655 0.5989104084675174 0.07835776555874149
-0.8324118243463161 0.5463914016412895 0.09244993726825347
-0.867011498421983 0.4867150762673352 0.1067684229449382
-0.8996449236290854 0.4196379610295937 0.120594332583839
-0.929007217471134 0.3452971286671599 0.133099522240898
-0.9537134046406884 0.2643133394038858 0.1434196653943669
-0.97244246308294 0.1778426785087011 0.1507568827418337
-0.9841071278705036 0.08754518063886867 0.1544959618287006
-0.9880125025997886 -0.004542970374740035 0.1543070190453966
-0.9839616461600604 -0.09621773172983941 0.1502052828190399
-0.9722781257269061 -0.1853510334092229 0.142549081537227
-0.9537408069950276 -0.2701122678978683 0.1319766487055303
-0.9294531048461629 -0.3491190625771964 0.1193013245402015
-0.9006848780842589 -0.4214958750397377 0.1053943912873394
-0.8687248397135352 -0.486848185691094 0.0910823635726581
-0.8347684891214083 -0.5451797582488467 0.07707529283557513
-0.7998496813017429 -0.5967858678380801 0.06393055036716974
-0.7648121517192203 -0.6421475293013954 0.05204731688309677
-0.7303142408746317 -0.6818384857513459 0.04168199760114236
-0.6968590656330331 -0.7164497228638196 0.03297328090153193
-0.6648291888120291 -0.7465439806300599 0.02596602951094827
-0.6344985277519932 -0.7726488064072965 0.02062620270269338
-0.6060010298499238 -0.7952856160523031 0.01683866743955985
-0.5787326682241811 -0.8153911697958429 0.01434360307195678
-0.5462373704930381 -0.8375347591524535 0.01265947425023653
0 0 0
0 0 0
0 0 0
0 0 0
0 0 0
-0.4534405927917136 0.8911957106238142 0.01272140614923146
-0.4815338361028711 0.8763219392699115 0.013602332236577
-0.5088250543181588 0.8607308896601011 0.01547254610762539
-0.5351363153514799 0.8445499708292391 0.01909111742072633
-0.5623258933733698 0.826549237934766 0.02461598893602731
-0.5911844270925999 0.8058970699876699 0.03210740955733576
-0.6219996085412163 0.7819099510999845 0.04163310396058726
-0.6548533360445082 0.7538780923464727 0.05324406212359087
-0.6896837867550651 0.7210109289396863 0.06692917627405708
-0.7262712589755143 0.682431634310077 0.08256586994029923
-0.7641909979202574 0.6372109972468253 0.09987123552528471
-0.8027572241027142 0.5844415358229552 0.1183593272869077
-0.8409799354174476 0.523352395656019 0.1373135761182073
-0.8775545755663713 0.4534625100655201 0.155787415626563
-0.9109060579113026 0.3747567886605381 0.1726484955432009
-0.9393048244599269 0.2878502956954014 0.186677941959877
-0.961056861026143 0.1940872517300222 0.1967227708997192
-0.9747416678764484 0.09552005777071662 0.2018776844252923
-0.9794432694239383 -0.005261458264231644 0.2016511815910815
-0.974906803767406 -0.1054304722509164 0.1960641208609279
-0.9615705005580611 -0.2022811655517424 0.1856461756125014
-0.9404654803312642 -0.2935477050233435 0.1713313315795218
-0.9130214607367461 -0.3776066859362522 0.1542887000735251
-0.8808409936881056 -0.4535345702376856 0.1357406992683761
-0.8454998745683691 -0.5210419381211079 0.1168129308932484
-0.8084071156204574 -0.5803341998359532 0.09843856924486051
-0.7707309410132099 -0.6319502475891619 0.08131851656842075
-0.733379873602494 -0.6766150083984716 0.06592489214800015
-0.6970216892317157 -0.7151232649018657 0.05253075990941563
-0.6621223092926596 -0.7482596275133329 0.04125018024886036
-0.6289838879304311 -0.7767563105889684 0.03207651296715403
-0.5977576836009286 -0.8012896975915034 0.02491128719614249
-0.5683883462070538 -0.8225273890149204 0.01958014852617769
-0.540332343461165 -0.8413025286825242 0.01584341636629435
-0.511996089414581 -0.8588821118108544 0.01347302621917752
-0.483675382202386 -0.8751572418704691 0.01256688716622127
0 0 0
0 0 0
0 0 0
0 0 0
-0.423894082749458 0.9056223897261361 0.01272375089026219
-0.4429657606325918 0.8964220761991707 0.01444978234981033
-0.466407888922881 0.8843939248484115 0.01763708710992238
-0.4913820992041135 0.8706491956029243 0.02266298254287897
-0.5179439041880819 0.8548952708516016 0.02980248294980526
-0.5464835719585257 0.8365490874179354 0.03925977482958611
-0.5772966753256776 0.814927101620663 0.05120905878908819
-0.61055928605752 0.7892336914949445 0.06578402859504535
-0.6463189443304211 0.7585357840737055 0.08303786172161441
-0.6844557590539286 0.7217579901086247 0.1028869166233899
-0.7246171268410512 0.6777121844081974 0.1250448503269476
-0.7661389504452986 0.625174757486104 0.1489551315422424
-0.8079727725433122 0.5630238853539133 0.1737357284776389
-0.8486461763152167 0.4904417284664045 0.1981579632627642
-0.8862910878904156 0.4071670775605394 0.2206877397519683
-0.9187735477602649 0.3137515289347786 0.2396145780771791
-0.9439381551966569 0.2117380775917196 0.2532740524840514
-0.9599377992239105 0.1036678494448678 0.260331324685737
-0.9655683573413134 -0.007145477374666518 0.260051320808576
-0.9605006235099283 -0.1170512155499132 0.2524629976359428
-0.9453259021200675 -0.2225906237744066 0.2383534203417275
-0.9214030873867284 -0.3209582515705674 0.2190939326019062
-0.8905719343084355 -0.4102707634102024 0.1963658079018353
-0.8548341958586977 -0.4896083893187573 0.1718782205496247
-0.8160892712335235 -0.5588782578261101 0.1471509235675673
-0.7759665508440741 -0.6185874703045944 0.1233914646696167
-0.7357540817664344 -0.6696057887279108 0.1014594444401452
-0.6963991250400117 -0.7129670884732452 0.08189132675374725
-0.6585507247623062 -0.7497276616271601 0.0649567264115964
-0.6226183718079621 -0.7808799482482487 0.05072346114978703
-0.5888268340322093 -0.8073120820222175 0.03911728191677841
-0.5572528307776565 -0.8298018249404304 0.02997021714668008
-0.5278380854605234 -0.8490319443464943 0.02305890319550597
-0.500420424954728 -0.8655923814742831 0.01814462514927655
-0.4751590975473822 -0.8797713486275237 0.01504015133118189
-0.4550618965396398 -0.8903546606262557 0.01368388171719814
0 0 0
0 0 0
0 0 0
-0.347609413974686 0.9375613794498282 0.01209773037845553
-0.3764306174138802 0.9263506234607233 0.01321032502756123
-0.3980974623542801 0.9172070304704978 0.01580106713399651
-0.4202419046549759 0.907187566371371 0.0201856630593795
-0.4438061130374993 0.8957261509979909 0.02666076609683316
-0.4691993847215444 0.8823763204382459 0.03555230663100924
-0.4968100746697892 0.8665762476596889 0.04717368650690242
-0.5269830826665799 0.8476247012720682 0.06181582626371037
-0.5599925058158571 0.8246528868815853 0.07972458584366524
-0.5960084614295287 0.7965938694890935 0.1010550394428626
-0.6350400052205111 0.7621665604730266 0.1258027259889442
-0.6768500052135977 0.7198929929225327 0.1537145054423634
-0.7208477429757715 0.6681720900974033 0.1841862901021755
-0.7659767419212327 0.6054356464542764 0.2161650037314674
-0.8106309879738487 0.5304056695060275 0.2480871360881175
-0.8526499814277646 0.4424463492325483 0.2779014883407817
-0.889449832673424 0.3419538717859891 0.3032268865516196
-0.9183260098586342 0.2306638053771228 0.3216699372121426
-0.9369008877155456 0.1117178676048981 0.3312640105046674
-0.9436028700636231 -0.01062820711977834 0.3309088466951458
-0.9380075535582985 -0.13163701509335 0.3206454829323004
-0.9209030595728602 -0.2468744003557406 0.3016464574934336
-0.8940597980025221 -0.3528769895174122 0.2759255476841839
-0.8598131002593458 -0.4475021317427747 0.2458928114201059
-0.8206214110360276 -0.5299233524754643 0.2139199388799546
-0.7787265312627344 -0.600374301823978 0.1820321049070191
-0.735964395153523 -0.6597918205285175 0.1517602142525278
-0.693709863606516 -0.7094783065765521 0.124125572032102
-0.6529099723718131 -0.7508444743764042 0.09970528208604879
-0.6141597222088799 -0.785244705071047 0.07873111693730044
-0.5777871446563573 -0.8138905165164008 0.06119021649348499
-0.5439279012298502 -0.8378196315281445 0.04691165409292181
-0.5125808030022989 -0.8578992459027949 0.0356343131396415
-0.4836456113590685 -0.8748455585959745 0.02705866253179796
-0.4569584525373106 -0.8892427602964514 0.02088745831961192
-0.4323245218289137 -0.901560619743937 0.01685101635892761
-0.4090318160087335 -0.9124021370127741 0.014673577175317
-0.3797992236506756 -0.9249626157939089 0.01402530206566237
0 0 0
0 0 0
-0.3175705331041563 0.9481593952837302 0.01194644880842804
-0.3328665462796148 0.9428710437401203 0.01393044307609077
-0.3509746143979245 0.936221138826841 0.01751568616983932
-0.3707980572903482 0.9284270341197034 0.02306605786418947
-0.3923751960105602 0.9192832053585644 0.03098538205924403
-0.4159708019104366 0.9084219036580695 0.04168857052282721
-0.4419493964937798 0.8953153302837759 0.05559847387866498
-0.4707025919259558 0.8792556626892021 0.07313377867414411
-0.5026011532301435 0.8593182465221068 0.09467962804057115
-0.5379467404809036 0.8343171121421634 0.1205332352205448
-0.5769023689383765 0.8027685152278931 0.1508189897595554
-0.6193899846548986 0.7628853276773363 0.1853699644598521
-0.664953671618448 0.7126352001567852 0.2235792613339702
-0.7126014665299562 0.6499052014081753 0.264239245915428
-0.7606623031793236 0.5728144877211848 0.3054118910236512
-0.8067248300268647 0.480188019174366 0.3444045801953339
-0.8477474539668092 0.3721316610526477 0.3779448122874411
-0.8804129022496441 0.2505393882460218 0.402620337898705
-0.9017163002860165 0.1192746041543459 0.4155493744458319
-0.9096356465815315 -0.01619601851508506 0.4150911700487706
-0.9036255278989408 -0.1497174961802452 0.4013048425659453
-0.8847109665325134 -0.2756099000379504 0.3759330907198464
-0.8551492957393801 -0.3896295444685837 0.3419188501291576
-0.8178373596872336 -0.489409666710183 0.3026883400966107
-0.7757171393201251 -0.5743566032685899 0.2614907494477931
-0.7313570086453655 -0.6452030322410379 0.2209750508366773
-0.6867551657511251 -0.7034679031703593 0.183030739285077
-0.6433192473874492 -0.7509942679028727 0.1488218919308375
-0.6019464125357191 -0.7896317452816279 0.1189210800441524
-0.5631400140779205 -0.8210582188853609 0.09347045386172873
-0.5271235153211712 -0.8467049868271471 0.07232886614271607
-0.4939340506062869 -0.8677461209341083 0.05518897766287355
-0.4634927694046873 -0.8851206791301779 0.04166336623108438
-0.4356602574809515 -0.899565224398313 0.03134560742501834
-0.4102960437357777 -0.911640367176029 0.02385366701208094
-0.3873469913169304 -0.9217410924501908 0.01885913058574415
-0.3669928545113924 -0.9300844834583087 0.01609653278412358
-0.3505451402544671 -0.9364209857456435 0.01529189651850226
0 0 0
0 0 0
-0.275458670019075 0.9612250344020999 0.01299824411231181
-0.2860943990500164 0.9580790660128383 0.01531333079955508
-0.3009409274120637 0.9534413327360607 0.01960059281885674
-0.3180772572475297 0.9477034104133512 0.02617449737418875
-0.3371382136292951 0.9407868240853019 0.03546796495907636
-0.3582756412008805 0.9323828368627993 0.04796676397023285
-0.3818396888715318 0.9219960869882947 0.06420021480309757
-0.4082631752224299 0.9089239876071497 0.08472522947515194
-0.438003191715641 0.892206807581472 0.1100918550674357
-0.4714887634421588 0.8705625312979877 0.1407807694531593
-0.5090473729347168 0.8423216569566262 0.1771016610032395
-0.5507927295126647 0.8053868854521138 0.2190418541232054
-0.5964641303173436 0.7572597074233665 0.2660606636800179
-0.6452228002788633 0.6951962121957344 0.3168434385449773
-0.6954395614760097 0.6165659333351382 0.369066750310326
-0.7445537952175418 0.5194631028646538 0.4192823998087448
-0.7891299631012735 0.403524185362757 0.4630789707632006
-0.8252404125991311 0.2707282751469165 0.4956656760853939
-0.8492011280031104 0.1257771553403797 0.5128718664468992
-0.8584751756740747 -0.02434210922184879 0.5122771071109831
-0.8523656436405457 -0.1716665142921687 0.4939670205712264
-0.832150106275524 -0.3089661738094036 0.4605063561637457
-0.8006046147533894 -0.4311104243878497 0.4161442692380906
-0.7611945445539027 -0.5355955127965851 0.365677880126128
-0.7173091003399926 -0.6222558770825881 0.3134729302597098
-0.6717732562677344 -0.6925314113966026 0.2629086084411723
-0.6266668090456892 -0.7486851527074133 0.2162388784561424
-0.5833588137461552 -0.7931992895015376 0.1747208675543179
-0.5426449822567899 -0.8284058012113106 0.1388533462001329
-0.504906967836693 -0.856312055569338 0.1086214404092073
-0.4702520735209806 -0.8785541603806903 0.08369931079165167
-0.4386203608792352 -0.8964191711772025 0.06359912395738004
-0.409862841560716 -0.9108953005698732 0.04777240319991188
-0.3838045592963938 -0.9227249309691451 0.03567579054886524
-0.360318029130283 -0.9324440816482661 0.0268132892944811
-0.339458600690896 -0.9403917659598726 0.02076499294125322
-0.3218100479303613 -0.9466479073841417 0.01720559491221789
-0.3095641599368583 -0.9507463602535287 0.01585526244671122
0 0 0
0 0 0
-0.225747606102918 0.9740736777496044 0.01478136171537772
-0.2351285872252211 0.9718138456498372 0.0170996161578262
-0.2477053701027971 0.9685887816641845 0.02185913210826154
-0.2621357277509487 0.964585794613153 0.02931049414445027
-0.2782577278371564 0.9596785965029662 0.03987014312739695
-0.2962917936160363 0.9535653340522611 0.05407704438660725
-0.3166204393252999 0.9457726040917241 0.07256499673404697
-0.3397150341063737 0.9356123108940531 0.09603800969196696
-0.3660980739479796 0.9221112092369466 0.1252322564324199
-0.3963026164687566 0.9039203331642602 0.1608485855462511
-0.4308066200444844 0.8792149429900553 0.2034373125777092
-0.4699227430491881 0.8456091966249687 0.2532147352513298
-0.5136271761248495 0.800134068323841 0.3097944425801586
-0.5613222604969854 0.7393613886146062 0.3718360618558065
-0.6115583725529476 0.6597882962555141 0.4366643574699398
-0.6617988536353713 0.5585882028469289 0.5000014969649049
-0.7083875882635289 0.4347218811598811 0.5560610675411419
-0.7469150888026477 0.2901382992456547 0.5982788793111216
-0.7730750957489596 0.1304672322930124 0.6207521225340573
-0.7838116839133178 -0.03546871907998305 0.6199848499179585
-0.7782434630051726 -0.1974892550913131 0.5960999131128893
-0.757854208051025 -0.3465174567632007 0.5527953070510966
-0.7258669552805181 -0.4764763232013465 0.4960720478522404
-0.686205589545135 -0.5848749228731897 0.4324849286057185
-0.6425681997204959 -0.6722146788863255 0.3677411238870552
-0.5978975243011632 -0.7408597620320455 0.3060152993501477
-0.5542416601802643 -0.7939599101484246 0.2498876611554263
-0.5128558387853648 -0.834702457155911 0.200625762656854
-0.4743961971272432 -0.8659126726306482 0.158566993819195
-0.4391135124208346 -0.889907621526849 0.1234655755984767
-0.4070084299174989 -0.9084962862665211 0.09475566376756128
-0.377942347808415 -0.9230462551966272 0.07172999721556923
-0.3517129329953032 -0.9345691612750958 0.05365161281270929
-0.3281095330019927 -0.943800096869689 0.03981848191455024
-0.3069692505329999 -0.951259105929111 0.02959717240136402
-0.2882732829861516 -0.9572852820308186 0.02243664688766105
-0.2724019647543656 -0.9620175494599552 0.01787188095929534
-0.2610091727555057 -0.9652110186227916 0.01555317545194219
0 0 0
-0.1355339601741126 0.9906490105360016 0.01565514495500082
-0.1653699123789332 0.9861010787758197 0.01604538927380506
-0.1798297861513049 0.9835208104984947 0.01865645542859558
-0.1915097107734274 0.9811986382963004 0.02394290886595033
-0.2032965706540067 0.9785873459068608 0.03220730959403057
-0.2160953137362463 0.9753843559205789 0.0439109736470254
-0.2304069195611979 0.9712633121369393 0.05966766222252673
-0.2466864354811448 0.9657691684142914 0.08022291374647533