# OOMMF: rectangular mesh v1.0
# Segment count: 1
# Begin: Segment
# Begin: Header
# Title: 
# Desc: time = 1.46e-09
# Desc: stepsize = 3.000084980942954e-14
# Desc: step = 9342
# meshunit: m
# valueunit: (none)
# valuemultiplier: 384000.0000000001
# xmin: 0
# ymin: 0
# zmin: 0
# xmax: 9.357999999999999e-08
# ymax: 9.357999999999999e-08
# zmax: 2.3395e-08
# ValueRangeMaxMag: 1
# ValueRangeMinMag: 0
# meshtype: rectangular
# xbase: 1.16975e-09
# ybase: 1.16975e-09
# zbase: 1.16975e-09
# xstepsize: 2.3395e-09
# ystepsize: 2.3395e-09
# zstepsize: 2.3395e-09
# xnodes: 40
# ynodes: 40
# znodes: 10
# End: Header
# Begin: Data Text
0 0 0
0 0 0
0 0 0
0 0 0
0 0 0
0 0 0
0 0 0
0 0 0
0 0 0
0 0 0
0 0 0
0 0 0
0 0 0
0 0 0
0 0 0
0 0 0
-0.9880712882080355 0.1521181244943024 0.02398344469105187
-0.9924758738807621 0.1199226917757459 0.02470197890608369
-0.9967660454324965 0.07638378278015776 0.0249593349481752
-0.9992873737292387 0.02846992317546506 0.02478322375525644
-0.9994900552577476 -0.02063669988673892 0.02436711018255366
-0.9973574354909228 -0.06858248105521735 0.02397058954802223
-0.9934028734436425 -0.1121568880537494 0.023907394170265
-0.9892255840248069 -0.1443450614018462 0.0244386407084392
0 0 0
0 0 0
0 0 0
0 0 0
0 0 0
0 0 0
0 0 0
0 0 0
0 0 0
0 0 0
0 0 0
0 0 0
0 0 0
0 0 0
0 0 0
0 0 0
0 0 0
0 0 0
0 0 0
0 0 0
0 0 0
0 0 0
0 0 0
0 0 0
0 0 0
0 0 0
0 0 0
0 0 0
-0.928779420504023 0.3696084466720091 0.02753877624214695
-0.9402752200167679 0.3392136533087751 0.02857635440940727
-0.9545922694968797 0.2965187924722076 0.02881327346240947
-0.968901130221911 0.245850355747782 0.02807494315918777
-0.982583551216304 0.1838778829509627 0.0268046458776837
-0.9907543463698281 0.1329699550810753 0.02692241064672764
-0.9962380933750888 0.08232080653982454 0.02707297765300183
-0.9991690856747958 0.03059013204291936 0.02693291765458734
-0.9994142815585122 -0.02161943374859481 0.02652722943076399
-0.9969644387597877 -0.07339160294616869 0.02599193077423465
-0.9919443414825221 -0.1240904608299316 0.02545546958553671
-0.9842599177622812 -0.1749778561474911 0.0248025027893316
-0.9713149068400889 -0.236676892332541 0.02305212324362651
-0.9575742966882449 -0.2874350461543337 0.02079809039956036
-0.9436614321956482 -0.3303472868189812 0.01933317040206027
-0.9324074036579705 -0.3608984593428795 0.01920249066495782
0 0 0
0 0 0
0 0 0
0 0 0
0 0 0
0 0 0
0 0 0
0 0 0
0 0 0
0 0 0
0 0 0
0 0 0
0 0 0
0 0 0
0 0 0
0 0 0
0 0 0
0 0 0
0 0 0
0 0 0
0 0 0
0 0 0
-0.8781019004816795 0.4777152540310123 0.0269293229871774
-0.8936342365652981 0.447929674931104 0.02787216450998416
-0.916119250296222 0.3998849955094674 0.02859212484375074
-0.9340066770638118 0.3560094926546341 0.02981221796521663
-0.9506291993931131 0.3088091922808142 0.03067585408882922
-0.9658743576561584 0.2571469873108478 0.03101857732484729
-0.9791299557836379 0.2008356798240935 0.03113774874207779
-0.9888774271855859 0.1453584454900575 0.03150168769335362
-0.9954573274644711 0.08975807461065367 0.03175212181068224
-0.998931125285659 0.03367589818033608 0.03166292496397375
-0.9992567857414048 -0.02265323252190134 0.03118825429651764
-0.9964272497458484 -0.0788056121103651 0.03037122756548851
-0.9904780521967571 -0.1345277145786536 0.02924930985103217
-0.9813634982850504 -0.1901472286178453 0.02774375033552583
-0.9687767007024798 -0.2466044110704229 0.02565089894384232
-0.9541101200310103 -0.298546432966642 0.02332179704278465
-0.9379572405184505 -0.3460887869266118 0.02141883569850346
-0.9204950192908912 -0.3902314212802639 0.02020785258869423
-0.8986432933409844 -0.4382598489623153 0.01919729462183901
-0.8834529519566116 -0.468139973570029 0.01886390269802884
0 0 0
0 0 0
0 0 0
0 0 0
0 0 0
0 0 0
0 0 0
0 0 0
0 0 0
0 0 0
0 0 0
0 0 0
0 0 0
0 0 0
0 0 0
0 0 0
0 0 0
0 0 0
0 0 0
-0.8394189561582271 0.5427894308782176 0.02748544649686634
-0.8614366613453167 0.5070831472818826 0.02817020115181516
-0.8829042357768611 0.4686138077683165 0.02968517502315782
-0.9052096179977968 0.4238002231115775 0.03144707259601842
-0.9257351549313424 0.3766942109093377 0.03340500548771261
-0.944542730236922 0.326495514329267 0.03520951404730975
-0.9613664746321455 0.272815265677511 0.03669240066646955
-0.9756884562465555 0.2158627244113105 0.03788562467399981
-0.9867853751864146 0.1573081370728349 0.03884293151759041
-0.9944403330681741 0.09765053662523043 0.03940554103248261
-0.9985280779177184 0.03724641180841784 0.03942565684099299
-0.9989699184015431 -0.02345874570422784 0.03884313811728007
-0.9957560879657609 -0.08396991078194255 0.03766785582423664
-0.9889491853285223 -0.1438336399487482 0.03593595493576355
-0.9786652008095931 -0.2026828189561513 0.03367639565491014
-0.9651080055958442 -0.2600162994423257 0.03095256950771452
-0.9489490869551006 -0.3141810683009257 0.02803367061890766
-0.9306933651843633 -0.3649247304771837 0.02529428963144661
-0.9106429263953876 -0.4125566847049729 0.0229443350586914
-0.8888110530801524 -0.457793210561154 0.02098304760183256
-0.8677675329472337 -0.496583288885158 0.01960984351469622
-0.8463604891427846 -0.5322792737142857 0.01878023408209217
0 0 0
0 0 0
0 0 0
0 0 0
0 0 0
0 0 0
0 0 0
0 0 0
0 0 0
0 0 0
0 0 0
0 0 0
0 0 0
0 0 0
0 0 0
0 0 0
-0.7628233567626649 0.6459753080182302 0.02857320087235617
-0.7841083160981966 0.6199327289262458 0.02928412934863262
-0.8165323238603208 0.5765425216949212 0.02955815909228379
-0.8433842266726443 0.5364074508561507 0.03114631383954022
-0.8684645004777568 0.4946106788409431 0.0336108284102161
-0.892781624350683 0.4490055831902173 0.0365370700216693
-0.9156732601484218 0.3999615494268275 0.03966408487852986
-0.9367540579382525 0.3473723185767498 0.04271190961347148
-0.955577180671992 0.2912132127929525 0.04546555260604535
-0.9715964555044423 0.2317685163738273 0.04778789040205322
-0.9842271895593919 0.169826214516835 0.04955699945418256
-0.9930688800148507 0.1060782577032529 0.05061227903080195
-0.9978578144337333 0.04119757959756139 0.05081871317570539
-0.9984524646679994 -0.02411367156619447 0.05011194111181969
-0.9948377227820789 -0.08913681102453885 0.04850293032531615
-0.9871260988217704 -0.1531676457205118 0.04606232006040727
-0.9755539954769912 -0.2155302602294987 0.04290814414866493
-0.9604923213542759 -0.2755292953225012 0.03921872051150391
-0.9424905449980427 -0.3323676455055996 0.03526075453468926
-0.922081329617462 -0.3857257156051873 0.03133199469805337
-0.8997287966622217 -0.4355723691493056 0.02765508435009109
-0.8758593283585022 -0.4819517732545275 0.02435005511716687
-0.8511775418337025 -0.524437891881843 0.02148696899200407
-0.8248185505955865 -0.5650808674726041 0.01892014296469536
-0.7932022291615736 -0.6087440653638275 0.01615198246129654
-0.7722801873704253 -0.6351096955556156 0.01479820280823474
0 0 0
0 0 0
0 0 0
0 0 0
0 0 0
0 0 0
0 0 0
0 0 0
0 0 0
0 0 0
0 0 0
0 0 0
0 0 0
-0.7139727696052385 0.6996343703241928 0.02747056831036287
-0.7400792953115733 0.67190723194784 0.02869334953113932
-0.7665329650816463 0.6414811726568423 0.03048144632299075
-0.7957424521234189 0.6047521053629691 0.03269313303530191
-0.8240492811760387 0.5653857058037235 0.03580203717777187
-0.8515186988066292 0.5228171913332262 0.03972518129727591
-0.8781727939325056 0.4762978795429383 0.04419133330956317
-0.9035556586593855 0.4256703592952593 0.04890722770764963
-0.9271374938816589 0.3708730795342908 0.05356515953105787
-0.9483230562395423 0.3119843464552522 0.05787182882355049
-0.9664628409754563 0.2493187369935728 0.06156089990877894
-0.9809108489311306 0.1834895367076496 0.06438552918179807
-0.9911317569880034 0.1152641992552699 0.06612113625698143
-0.996740836400736 0.04551883391224102 0.06660135742182927
-0.9975279285438885 -0.02479797868171491 0.06575022454896559
-0.9934713534604129 -0.0947130673496471 0.06359327579827743
-0.98473817807675 -0.1632805463700531 0.06025100675656143
-0.9716705185302928 -0.2296275456749426 0.05592489326206393
-0.9547617957080943 -0.2929858663475597 0.05088413875486601
-0.9346206596094639 -0.3527304592799012 0.04544717513069665
-0.9118768339977809 -0.4085165296061222 0.03993600702064647
-0.887130211207356 -0.4602188930312634 0.03462020884209008
-0.86093843158906 -0.5078420034192197 0.02969034482995994
-0.8338050431118708 -0.5514808525576941 0.02525904478498322
-0.805790432448888 -0.5918157896230724 0.0213506469843985
-0.7769023711479389 -0.6293629887714527 0.01802592769800542
-0.7507082664681107 -0.6604437541267996 0.01584759575907111
-0.725111693430098 -0.688470063868902 0.01489977205480165
0 0 0
0 0 0
0 0 0
0 0 0
0 0 0
0 0 0
0 0 0
0 0 0
0 0 0
0 0 0
0 0 0
-0.6584662372881276 0.7521344213933768 0.02675867161995911
-0.6863857910807103 0.7266999295209134 0.02795993985698656
-0.7141628674817686 0.6993274004717452 0.03020903274930019
-0.7426221676881718 0.6688783067207027 0.03337853886205412
-0.7722545020274074 0.6342106547736392 0.03741429499525569
-0.8020765958960069 0.5957142130528655 0.04239941842381791
-0.8317191494619942 0.5530961111657711 0.04824881585611129
-0.8608446002236068 0.5059162375994425 0.05472965191815451
-0.8889206409569025 0.4539105089939912 0.06152514856206755
-0.9152898455602202 0.3969689189042147 0.06826548204156048
-0.9392029628813696 0.3351708121369794 0.07455414949077947
-0.9598555494337913 0.2688470104215362 0.07999130708118422
-0.9764530727101943 0.1986207698726943 0.08419730737973344
-0.9883013605099193 0.1253727369475922 0.08684525113390854
-0.99488152656684 0.05018803173358387 0.08770353223640306
-0.9959049664657221 -0.02571680922653891 0.08667146873172367
-0.9913427995126891 -0.1010832667398619 0.08379514926021445
-0.9814255739697919 -0.1747042712210395 0.07926071142242797
-0.9666139146620767 -0.2455084377795284 0.07336993226595065
-0.9475458295668825 -0.3126244168718045 0.06650469792407056
-0.9249678005519163 -0.3754245998426868 0.05908415841076305
-0.8996537823770007 -0.4335541588627641 0.05151565963429765
-0.8723465525997246 -0.486890331438208 0.04415084732332054
-0.8437224842046227 -0.5354847573116893 0.03726183482358943
-0.8143568360886799 -0.5795338038777126 0.03104051672673983
-0.7846526020745743 -0.6194061309467755 0.02561911401952266
-0.7550496462148423 -0.655326808731862 0.0211377744371079
-0.7265941822422328 -0.6868358853188501 0.01781462797847906
-0.6989778610031778 -0.7149711623786104 0.01569034079935516
-0.6715903408614331 -0.7407782430083755 0.01462903780321429
0 0 0
0 0 0
0 0 0
0 0 0
0 0 0
0 0 0
0 0 0
0 0 0
0 0 0
-0.6021679024191136 0.7979553930977373 0.02571007433672206
-0.6287160676922127 0.7771626511538707 0.02709833716535984
-0.6561063049158263 0.7540910876088606 0.02951522045632751
-0.6845915297298769 0.728173691336269 0.03312872873833762
-0.714239216816539 0.6988716018507389 0.03795820448702514
-0.7450251093971655 0.6655843238836942 0.04398970525050987
-0.7765357948403847 0.6279897101013515 0.05119651685839419
-0.8083866107912683 0.58564219004032 0.05945008610745185
-0.8401201566213987 0.5380580371102116 0.06849577461086251
-0.8711132332842558 0.4848537926673951 0.07796495708388407
-0.9005806617280891 0.4258130247666009 0.08739416262265175
-0.9276033430342218 0.3609539902715158 0.09625099946912689
-0.9511786520833861 0.2906018476845823 0.1039698895985709
-0.9703018449771152 0.2154397072176485 0.1100002826722711
-0.9840731809016442 0.1365071607888527 0.113867333697972
-0.9918061481922846 0.05514645411389572 0.1152364222225207
-0.9931150835864544 -0.02710059748735117 0.11396485584994
-0.9879635527442137 -0.1086297705577649 0.110125344029418
-0.9766631591179459 -0.1879205041972868 0.1039949889369238
-0.9598244402944984 -0.2636635088156067 0.09601352994445311
-0.9382726473960988 -0.334848816022578 0.08672202463384435
-0.9129474949003459 -0.4008051636729236 0.07669479987784647
-0.8848062131693897 -0.4611928378490284 0.06647654814747656
-0.854749985168948 -0.5159517774308918 0.05653517683342058
-0.823576665541125 -0.5652345204365856 0.04723783317410357
-0.7919516679498418 -0.6093465321586912 0.03885047461280066
-0.7604001953177525 -0.6486876451637897 0.03155759769976812
-0.729393128110988 -0.6836194702094026 0.02549675695226195
-0.699449656678515 -0.7143797705876744 0.02077790045716902
-0.6707472104470834 -0.7414810828283327 0.01743512217273897
-0.6433935648286824 -0.7653796202631818 0.01545178380727633
-0.6173235333900146 -0.7865694593139353 0.01483714249611608
0 0 0
0 0 0
0 0 0
0 0 0
0 0 0
0 0 0
0 0 0
0 0 0
-0.5745326447823904 0.8180542856146134 0.02644666078951359
-0.5956297267862839 0.802749522443844 0.0286082642723501
-0.6221011076723372 0.7822719366508198 0.03226188093441228
-0.6509228213343686 0.7582198432154341 0.03744529370251135
-0.6814426871209217 0.7305355539325085 0.04420032364066896
-0.7134436240574963 0.6987410056521102 0.05252810973167577
-0.7466545837185228 0.6622814544500031 0.06237152959249139
-0.7807245473088327 0.6205293712830958 0.07356956302998813
-0.815159597583949 0.5728428348005482 0.08582492111528903
-0.8492650169680315 0.5186606942189514 0.09869151547424826
-0.8821300821298502 0.4575989130903364 0.1115784609148456
-0.9126484348545063 0.3895548737463178 0.1237733198153364
-0.939577310976724 0.3148126861752014 0.1344895881505395
-0.9616412976909333 0.2341234481706068 0.1429413361907678
-0.9776737520568088 0.148726800085441 0.1484397974786618
-0.9867704899764318 0.06029221787902569 0.1504953440306379
-0.9884205068076843 -0.0292223467452492 0.14889914765619
-0.9825796614778299 -0.1177714808047888 0.1437605201686459
-0.9696677336629874 -0.2034391131656189 0.1354880567698549
-0.9504918771573518 -0.2846224586843557 0.1247206777978899
-0.926120263009495 -0.3601472000588585 0.1122285736031054
-0.8977396440812495 -0.4293020235368171 0.09880943291034984
-0.8665278117678351 -0.4918031575946938 0.08520097190018215
-0.8335607596245711 -0.5477127056400123 0.07202258044950167
-0.799758260656792 -0.5973414140618449 0.05974913855293407
-0.7658621635255303 -0.6411569264489013 0.04871285401812897
-0.7324461309987186 -0.6796998907190918 0.03912446474345349
-0.6999666790419766 -0.7134978819818594 0.03110338628423993
-0.6688229554281256 -0.743011199818828 0.02470245405161722
-0.6393841384769718 -0.7686293278312706 0.01992184383306268
-0.6124622805959584 -0.7903222177284323 0.01675550691592242
-0.5912025133947802 -0.8063786294282962 0.0152674214272362
0 0 0
0 0 0
0 0 0
0 0 0
0 0 0
0 0 0
0 0 0
-0.4948344622352933 0.8685500180161517 0.02756304026136971
-0.5286136899149476 0.8483927797064845 0.02823576059552383
-0.5556254540326259 0.8308488800777412 0.03115274152624158
-0.5833010789323086 0.8114524298691245 0.03612208986060525
-0.6126525735350935 0.7891774856705823 0.04307807158501589
-0.643849279329047 0.7633802070334366 0.05204579730442731
-0.6768897951742756 0.73337997882115 0.06303976406377196
-0.7116400473346898 0.6984207368103599 0.07600603543636364
-0.7478167117068973 0.657670858073006 0.09077008391203881
-0.7849359618366586 0.6102691177685174 0.1069913067197266
-0.8222579480827122 0.5554129975686787 0.1241300485240454
-0.8587551494538748 0.4924794035451103 0.1414341909522055
-0.8931201624603473 0.4211726298228129 0.1579556624339194
-0.9238286541794388 0.3416823406956691 0.1726087940220161
-0.9492688133771069 0.2548150456160096 0.1842769993171403
-0.9679313694508687 0.1620494047492128 0.19196055442041
-0.9786278265129396 0.06547281255267627 0.1949381645317332
-0.9806829784602896 -0.03241342803421117 0.1928996253011531
-0.9740450134509373 -0.128987134886018 0.1860070719227061
-0.9592792990377853 -0.2218241803492764 0.1748635452286905
-0.9374513979584903 -0.3089609633281081 0.1603995000149282
-0.90994029739325 -0.389043439739108 0.1437144988365687
-0.8782373126528956 -0.4613498588863236 0.1259187451088543
-0.8437767683063948 -0.5257136322016897 0.1080089912170389
-0.807822354544849 -0.5823911670511491 0.09079411896382099
-0.7714104763642952 -0.6319181193026702 0.07486900194598083
-0.7353396096931515 -0.6749817035270008 0.06062473356733709
-0.7001931992116239 -0.7123190873257993 0.04828044748270634
-0.6663848771142957 -0.744642926084759 0.03792239688221755
-0.6342019969200617 -0.7726029381334368 0.02953856953520226
-0.6038195096320631 -0.7967879936682716 0.02304111398748922
-0.5752665956423842 -0.8177619235734827 0.01826965493429763
-0.5477971609409358 -0.8364780817409744 0.01492277561280032
-0.5145378147689916 -0.8573778178917102 0.01241428854183199
0 0 0
0 0 0
0 0 0
0 0 0
0 0 0
-0.4284852661365129 0.9031591825471967 0.02653050479354952
-0.4576521287347285 0.8887019287601432 0.02762989110676799
-0.4857487327828389 0.873586233903315 0.02992090464020527
-0.5126016857138507 0.8579430625014661 0.03425220151936659
-0.540241382492643 0.840517473329307 0.04086105322375717
-0.5695873136951904 0.820416997295779 0.04986223646883098
-0.6010229951980632 0.7968727071594617 0.06136161526148683
-0.6347065750439655 0.7690628222259493 0.07543168476055753
-0.6706331333947179 0.7360545355111399 0.09205933492407063
-0.7086133807482136 0.6967978198990715 0.1110849891231398
-0.748213752585548 0.6501657193855196 0.1321390092961257
-0.7886846774699625 0.5950464915026358 0.1545838040497917
-0.8289033561674644 0.5304919638815768 0.1774753571383381
-0.8673587498023386 0.455919587974753 0.1995648477118527
-0.9022092442353659 0.3713460041512679 0.2193641374909206
-0.9314375393095197 0.2775997997096283 0.2352922896446046
-0.9531028059455114 0.1764356273275612 0.2458973580751165
-0.965648654921648 0.07047295080222078 0.2501124516157461
-0.968185248203287 -0.03707256609894326 0.2474731298633824
-0.9606530327936709 -0.1428182006061826 0.2382198819576855
-0.9438110007269563 -0.2436846181159772 0.2232456086924236
-0.9190593448766792 -0.3372703012640597 0.2039084708394902
-0.8881658950322189 -0.4220403221945009 0.1817781872051166
-0.8529852648084101 -0.4973201270416905 0.158394536708065
-0.8152382829265351 -0.5631488847000237 0.1350921008501734
-0.7763793638516054 -0.6200698791379263 0.1129089384028256
-0.7375457720739771 -0.6689225817850685 0.09256788683878801
-0.6995658971731356 -0.7106731526813348 0.07450654716410807
-0.6630019427785009 -0.7462945474077433 0.05893108162425378
-0.6282054946523272 -0.77669386070751 0.04587486488140393
-0.5953644505427194 -0.8026821652523869 0.03524929241424614
-0.5645172777999112 -0.8249834498662194 0.02688029970458869
-0.5354917140801465 -0.8442909542487471 0.02052824213725498
-0.5076057796464172 -0.861442737951822 0.01589911002605886
-0.4790907440669077 -0.8776731589099662 0.0127234067142978
-0.4501856255197606 -0.8928654894345023 0.01114093139140513
0 0 0
0 0 0
0 0 0
0 0 0
-0.3978367274218123 0.9170821870516138 0.02619542912286509
-0.4172685224917377 0.908346991638845 0.02815533551959976
-0.4410096210572149 0.8969360327229289 0.03187894819821059
-0.4661402422235588 0.8839025169368089 0.03781025168569491
-0.4927876653272222 0.868917364899541 0.0462917906046308
-0.5214421752787148 0.8513410477600007 0.05758887253198534
-0.5524964733224774 0.8304058728710314 0.07192866791151216
-0.5862151145420523 0.8051982858401521 0.08948497059578728
-0.6227208264795161 0.7746266617963908 0.1103281790969452
-0.6619460030186888 0.737412214095136 0.1343529515525829
-0.7035515591989459 0.6921219313819293 0.1611906810236864
-0.7468269686406869 0.6372636858639702 0.1901169997397094
-0.7905955760756198 0.5714629404513563 0.2199744139220462
-0.8331617387083478 0.4937298787010105 0.2491431797789529
-0.8723480953382744 0.403796024897299 0.2756040109229621
-0.9056693748253254 0.3024503674145058 0.297130878156973
-0.9306579703547007 0.1917538782076283 0.3116186650500932
-0.9452921115120069 0.07499807701571355 0.3174871845557167
-0.9484055620675155 -0.04366326717947351 0.3140388653313684
-0.9399299151532556 -0.1598448051630816 0.3016312199729488
-0.920874153287767 -0.2696263491990298 0.2815891077867543
-0.893058941975748 -0.3700859750965094 0.255894699425413
-0.8587211697952637 -0.4595304362029377 0.2267812398515159
-0.8201292401143578 -0.537427101025045 0.1963673613237734
-0.7793046685331209 -0.6041441400895534 0.1664154187505953
-0.7378777935816915 -0.6606279665009249 0.1382282591074171
-0.6970554511675572 -0.7081121751578117 0.1126536523636289
-0.6576596141278819 -0.7479014848671525 0.09015098933829305
-0.6201985802930823 -0.7812358940263106 0.07088158355564668
-0.5849430581439319 -0.8092211740779313 0.05479699036588206
-0.5519884570259913 -0.8328077734873683 0.04171277656877696
-0.5212918400569013 -0.8528019133590878 0.03136421625304682
-0.4926809037699769 -0.8698940697328685 0.02344855014676439
-0.465882288459176 -0.8846702732585305 0.01766920803877204
-0.4409647725261931 -0.8974180506403646 0.01381708275179591
-0.4209516199145432 -0.9070049900636582 0.01190301184342152
0 0 0
0 0 0
0 0 0
-0.3187156238136381 0.9475240793815743 0.02486905967629223
-0.3484180297138053 0.9369730237637731 0.02619979597861079
-0.3702944220891392 0.9284573220276763 0.02913832772939286
-0.3923537615137494 0.9191786843189781 0.03419169664762905
-0.4156509227049457 0.9085654047399148 0.04175183546050539
-0.4406836163004392 0.8961421487051816 0.05222259700959382
-0.4679332921756525 0.8812964917366307 0.06599187621489067
-0.4978406383182217 0.8632469923763296 0.0834225928158905
-0.5307750699647249 0.8410051128150653 0.1048247362165045
-0.5669964970615569 0.8133335556038166 0.1303974679538545
-0.6065881303141605 0.7787207593945285 0.1601399982826875
-0.6493536274197891 0.7353961718108804 0.1937326432036246
-0.694683981661722 0.681418721609731 0.2303968130473504
-0.7414150368581078 0.6148763145592078 0.2687579969317678
-0.7877192368100833 0.5342253190751923 0.3067600241529986
-0.8311003371697454 0.438760899705789 0.3417032373942356
-0.8685698303635255 0.3291322144783909 0.3704840552234691
-0.8970500044545089 0.2077212029775349 0.3900681880668179
-0.9139540567503803 0.07865541882962569 0.3981222265062051
-0.9177705447505394 -0.05269029771679387 0.3935999996377197
-0.9084175476434969 -0.1806202586551481 0.3770329976231809
-0.8872100536227842 -0.3001495967338657 0.3503834190300013
-0.8564700061793765 -0.4077583688899611 0.3165315799652488
-0.8189675251837283 -0.5016552705750239 0.2786291122598967
-0.777408969722733 -0.581591999268282 0.239553835664889
-0.7341010104967772 -0.6484271169057197 0.2015886416665032
-0.6908090894673412 -0.7036472950137778 0.1663228370642343
-0.648760511477414 -0.7489753396222095 0.1347061223009543
-0.6087257064705768 -0.7861082829512821 0.1071764048533226
-0.5711250127985265 -0.8165740820738129 0.08380327106499003
-0.5361289474902833 -0.8416747409091857 0.06441569822966609
-0.5037368876476596 -0.8624831832798459 0.04870222358899097
-0.4738299493130274 -0.8798685292762602 0.0362842985772635
-0.4462035974936323 -0.8945310214010016 0.02676941043468531
-0.4205989256117022 -0.907030764619695 0.01979231688541136
-0.3967346144337928 -0.9178101134874617 0.01504131943021233
-0.3738032334944579 -0.9274275394886891 0.01221890449439811
-0.3442640808605173 -0.9388093584792894 0.01091929764077122
0 0 0
0 0 0
-0.2878142825279106 0.95737681362397 0.02434287386808787
-0.3031707443362614 0.95256879766005 0.02646101855717959
-0.3210335680350656 0.9465782507457091 0.0304477160041256
-0.3403280106976437 0.9395874861653262 0.03677228543491246
-0.3611621855321618 0.931371440331638 0.04592511160794011
-0.3838765692159737 0.9215354461305687 0.05840548888509269
-0.4089173554832331 0.909506891265319 0.07472490298082342
-0.436764361914246 0.8945035875579103 0.09539509425367995
-0.4678822863449013 0.8754833171165686 0.1208930418809829
-0.5026692151552187 0.8510834969668574 0.1515933419576897
-0.5413785839649338 0.8195689358523401 0.1876592342784785
-0.5839999614761202 0.7788165329342051 0.2288861136553147
-0.6300947900923569 0.7263816806131077 0.2744999263536242
-0.6786016509732512 0.6597066839504652 0.322934808355275
-0.7276571591644319 0.5765319367144295 0.371653043395392
-0.7745213594464473 0.475528487396693 0.4171202721463436
-0.8157280238818527 0.3570600417323796 0.4550779248127492
-0.8475539816440545 0.2238160200694329 0.4812054003848962
-0.8667738701807585 0.08093819080581248 0.4920894910897317
-0.8714679730427585 -0.06463946709109751 0.4861741573293714
-0.8615275162479296 -0.2055415454828525 0.4642445603646781
-0.8386078139245015 -0.3354681360653229 0.4291830193630988
-0.8055762033406607 -0.4502464655705843 0.3851299791660505
-0.7657505144052563 -0.5481005859095416 0.3364697570565619
-0.7222460100740412 -0.6292615590982857 0.2870376128198563
-0.6775934428002263 -0.6952720124857041 0.2397164052129405
-0.6336220758447356 -0.7483044317842111 0.1963760229109364
-0.5915160785686266 -0.7906574745860713 0.1580173619447235
-0.5519477823076753 -0.8244578186916394 0.1249918029466822
-0.5152219361095033 -0.8515253510661758 0.09721590941404656
-0.481398527669654 -0.8733430913168289 0.07434582978657109
-0.4503841782794402 -0.89108290517578 0.0559048124855481
-0.4219954998631603 -0.905653508911395 0.04137051959691092
-0.3960063826137134 -0.9177498905619471 0.0302338105890478
-0.3722005402071474 -0.9278906256506642 0.02203961658300133
-0.3504539249067505 -0.9364360947848952 0.0164160562093265
-0.3308747219196289 -0.943583906011592 0.01308933575529412
-0.3147271948014852 -0.949108295133933 0.01184216873492262
0 0 0
0 0 0
-0.2443997499209859 0.9693557273747335 0.02486435288440441
-0.2546827280557572 0.9666387526422719 0.02731720923280937
-0.2688476123872254 0.9626492378102788 0.03205317857836878
-0.2849953042311008 0.9577155957974017 0.03947802088060349
-0.3028053766151972 0.9517341737647255 0.05010954381456029
-0.3224858749397405 0.9443725031479899 0.06452469110618683
-0.3444510480772161 0.9350965021824518 0.08335470643371465
-0.3692059588414446 0.923136065842395 0.1072695851441317
-0.3972890658754286 0.9074189459006414 0.1369388723350583
-0.4292192994025231 0.8864857625048983 0.1729560230131224
-0.4654178709483856 0.8584026650905792 0.215710616259984
-0.5060834531068822 0.8207026549328261 0.265191799793327
-0.5510074827402042 0.7704110376617643 0.3207141827441162
-0.5993336221165554 0.7042410642014679 0.3805834112162977
-0.6493028011192085 0.6190639701605531 0.4417755915708818
-0.6980860341431487 0.512722242203398 0.4997917479152794
-0.7418698036947696 0.385108963473538 0.5489264801576077
-0.7763562445978462 0.2391684477067086 0.5831547265481879
-0.7976868364237746 0.08122616339700164 0.5975767911959378
-0.803503403239714 -0.0798592394080733 0.5899193019925359
-0.7936392038256224 -0.2346323423213566 0.5613238620331629
-0.7700620987113385 -0.3752333698142819 0.5159498835217493
-0.7361369896832393 -0.4968300452325403 0.4596327213921237
-0.6956441328947682 -0.5978364230043076 0.3983350997571018
-0.6519933499377875 -0.679199598025015 0.3370349799049933
-0.6078217190363419 -0.7433493017419273 0.2792571815862482
-0.564924688815066 -0.7932733853919702 0.2271066533502769
-0.5243773632124415 -0.8319051952244965 0.1815547496180115
-0.4867195053911294 -0.8618102127353263 0.1427840337604496
-0.4521310592115981 -0.8850816999075601 0.1104893197777106
-0.4205694640539216 -0.9033538010153056 0.08410253323530666
-0.3918664110559963 -0.9178663678185187 0.06294479099760325
-0.365793791146846 -0.9295424204517978 0.04632268277021338
-0.3421159473754967 -0.9390572952275337 0.03358682526400298
-0.3206545023483262 -0.9468878357195891 0.02416850616026673
-0.3014172887167959 -0.9533297518323733 0.01760688313814679
-0.2849385870005364 -0.9584496446673891 0.01357498711206574
-0.2733495710473277 -0.9618416168525371 0.01186238166383401
0 0 0
0 0 0
-0.1931350025354979 0.980827862181355 0.02599183649466657
-0.2019201812087608 0.9789876205003909 0.02848647622299053
-0.2134671448345945 0.9763676601278644 0.03373381586190269
-0.2264827840868332 0.9731058747484053 0.04207736971838009
-0.2408483991095853 0.9690580753445195 0.05402309928099952
-0.2568269247827973 0.9639039494267023 0.07020759920561306
-0.2748448199271523 0.9571367155433953 0.09137632471276189
-0.2954218470393501 0.9480066240867014 0.1183611971027402
-0.3191366006883138 0.9354334897417473 0.152039522396919
-0.3465886264783846 0.9178937407878399 0.193254766094738
-0.3783329499316047 0.8932934316477479 0.242674728744135
-0.4147647423260222 0.8588567716756815 0.3005582377344765
-0.4559334775171237 0.8110932713917297 0.3664046522387558
-0.5012781896041963 0.7459548851992774 0.4384877260248816
-0.5493119497396365 0.6593399507422045 0.5133490150263323
-0.5973571875220119 0.5480864383497491 0.5854619087633949
-0.6415292660342002 0.4114243799098534 0.6474335336058925
-0.6772043899661822 0.2524614644796846 0.6911276460707553
-0.7000520373688232 0.07882860174818725 0.7097275509110414
-0.7073222454223486 -0.09836693053692266 0.7000137056568466
-0.6987293875311518 -0.2672362644842442 0.6635977862718109
-0.6764043143152103 -0.4181821656337709 0.6063009812969289
-0.643995446462464 -0.545779718224413 0.5360917497131359
-0.6055037623335418 -0.6488543400280752 0.4608180109616553
-0.5644094481810678 -0.729307109381751 0.386720978237768
-0.5232839780894509 -0.7906220740954218 0.317947502314347
-0.4837822699822564 -0.8366803965211601 0.256750130142146
-0.4468222264245458 -0.8710600908054204 0.20397111604113
-0.4128057272171525 -0.8967376326358357 0.1595401196921762
-0.3818085136925864 -0.916037830214509 0.1228696564972477
-0.353718612712104 -0.9307042134408771 0.09312792333356616
-0.3283280136028837 -0.9420100831022578 0.06940978905933685
-0.3053916543385993 -0.9508689162376429 0.05083543639414632
-0.2846700540602314 -0.9579265122538878 0.03660269720179761
-0.2659762200850456 -0.9636285846202854 0.02601155996814059
-0.249264889765686 -0.9682591244984692 0.01847383434908932
-0.2348792436122529 -0.9719305076207391 0.0135214376538793
-0.2243972985093034 -0.9744371478835002 0.01086725569751301
0 0 0
-0.1007599237631448 0.9945758870308364 0.02581167759114757
-0.1309848380007763 0.9910307505943985 0.02647685008102427
-0.1448208577823649 0.9890227378021624 0.02934183466476825
-0.15522041839526 0.9872548636578817 0.03513482456277869
-0.16521897546565 0.9852621069978548 0.04428623556171739
-0.1757867693678058 0.9827559834569229 0.05735580785626674
-0.1874593528369646 0.9794004954253163 0.07505771509039476
-0.2007139216496416 0.9747104899995671 0.09825162767519086
-0.2160635027517844 0.9679624891414018 0.1279264726075514