# OOMMF: rectangular mesh v1.0
# Segment count: 1
# Begin: Segment
# Begin: Header
# Title: 
# Desc: time = 1.94e-09
# Desc: stepsize = 2.959355202861371e-14
# Desc: step = 12414
# meshunit: m
# valueunit: (none)
# valuemultiplier: 384000.0000000001
# xmin: 0
# ymin: 0
# zmin: 0
# xmax: 9.357999999999999e-08
# ymax: 9.357999999999999e-08
# zmax: 2.3395e-08
# ValueRangeMaxMag: 1
# ValueRangeMinMag: 0
# meshtype: rectangular
# xbase: 1.16975e-09
# ybase: 1.16975e-09
# zbase: 1.16975e-09
# xstepsize: 2.3395e-09
# ystepsize: 2.3395e-09
# zstepsize: 2.3395e-09
# xnodes: 40
# ynodes: 40
# znodes: 10
# End: Header
# Begin: Data Text
0 0 0
0 0 0
0 0 0
0 0 0
0 0 0
0 0 0
0 0 0
0 0 0
0 0 0
0 0 0
0 0 0
0 0 0
0 0 0
0 0 0
0 0 0
0 0 0
-0.9837756218142186 0.178805710990598 0.01463023038757875
-0.9889278707177077 0.1475526868144906 0.01580731259781138
-0.9942981821755162 0.1053207247196137 0.01669340789050192
-0.9981212492507648 0.05879535135594394 0.01723596394237173
-0.999784596922455 0.01102156646694958 0.01758649564915985
-0.9992001673967766 -0.03572609306372693 0.01796306623754712
-0.9967565274027407 -0.07829362412430756 0.01861541032344827
-0.9937649518656863 -0.1097462677905067 0.0196717347848149
0 0 0
0 0 0
0 0 0
0 0 0
0 0 0
0 0 0
0 0 0
0 0 0
0 0 0
0 0 0
0 0 0
0 0 0
0 0 0
0 0 0
0 0 0
0 0 0
0 0 0
0 0 0
0 0 0
0 0 0
0 0 0
0 0 0
0 0 0
0 0 0
0 0 0
0 0 0
0 0 0
0 0 0
-0.9216061485482733 0.3878262278489475 0.01526184623412203
-0.9333379219962894 0.3586148361130234 0.01660489937569801
-0.9480377104361575 0.3176877407158913 0.01729158725508665
-0.9629387769141593 0.2691744138869289 0.01714779355166753
-0.977612319668997 0.2097503255252738 0.0167018973007203
-0.9868453112826083 0.1607205208888089 0.01747128400436338
-0.9935659398473197 0.1117647698582697 0.01831282047745401
-0.9979205880251613 0.06161256633705671 0.01893123516513176
-0.9997542696983728 0.01083218956388688 0.01934073134927479
-0.9990179025806158 -0.03970986063474074 0.01965597343801299
-0.9957932096382652 -0.08942283640267873 0.01998599429653796
-0.9900012504971761 -0.1396003123085707 0.02023059112770382
-0.9794477620594688 -0.2007442837271745 0.01959117014272056
-0.9677731400583464 -0.2511538677215702 0.01835440301681217
-0.9556803042733412 -0.2938705789540832 0.01775496688831572
-0.9457744309545599 -0.3243125205959387 0.01822401539964516
0 0 0
0 0 0
0 0 0
0 0 0
0 0 0
0 0 0
0 0 0
0 0 0
0 0 0
0 0 0
0 0 0
0 0 0
0 0 0
0 0 0
0 0 0
0 0 0
0 0 0
0 0 0
0 0 0
0 0 0
0 0 0
0 0 0
-0.870877833690626 0.4913159667353189 0.01343203697361187
-0.8863303219719016 0.4628224426691213 0.01462692431689711
-0.9087661226155062 0.4170077858745004 0.01576835141747193
-0.9268079430933629 0.3751361248425675 0.01731832720417441
-0.9437689574902356 0.3300836598254579 0.01857235564016859
-0.9595774458343049 0.2807748220988883 0.01940682151843212
-0.9736981613690219 0.2269503422105228 0.02013535987043692
-0.9845644823206093 0.1737397277614244 0.02114916428930295
-0.9925046207729222 0.1201869998459847 0.02212832601934453
-0.9975620630496574 0.06593495059443959 0.02285853569718203
-0.9996662455755005 0.01118817459718268 0.02328566525064523
-0.998770962679127 -0.04367275866313089 0.02343617417073396
-0.994870063726297 -0.0984334437404666 0.02333266925632518
-0.9878932585183784 -0.1534364434080774 0.02289470699135011
-0.9775484835084062 -0.2095663168367071 0.02192991650489302
-0.9650060936719883 -0.2614102414915767 0.02068634378629324
-0.9508347189403293 -0.3090662020417116 0.01978433757233261
-0.9352127731193239 -0.3535491527930362 0.01949527003633933
-0.9153838663909007 -0.4021113469911283 0.0194638581022731
-0.9015278474869324 -0.4322691270589251 0.01977225321739332
0 0 0
0 0 0
0 0 0
0 0 0
0 0 0
0 0 0
0 0 0
0 0 0
0 0 0
0 0 0
0 0 0
0 0 0
0 0 0
0 0 0
0 0 0
0 0 0
0 0 0
0 0 0
0 0 0
-0.8327332434631419 0.5535154619791747 0.01326569189056956
-0.8543396588726169 0.5195212731846617 0.01419133489169223
-0.8755055078728466 0.4829475508340666 0.01586722495223327
-0.8976281795599734 0.440393298007608 0.01781556425795948
-0.9181746613802751 0.3956719776424941 0.01997441632924268
-0.9372352755778965 0.3479996715605786 0.02205145814119952
-0.9545830762285977 0.2969834705653567 0.02391586897653257
-0.9697497349606107 0.2427531115944251 0.02561988202645459
-0.9820198972955818 0.1868057142326849 0.02721298303367361
-0.99116269454622 0.1295436926483187 0.02854723515358327
-0.9970224192883891 0.07125706238476559 0.02947416659755492
-0.9994762673148248 0.01233125958306144 0.02991874181043484
-0.9984580496145314 -0.04679206394093976 0.02986680284349713
-0.993965939988647 -0.1056958544649142 0.02932740171608024
-0.9860514126587988 -0.1640168422472552 0.0283034812845644
-0.9748567625032483 -0.2212113710639195 0.02682949708260664
-0.9609540747315586 -0.2755651185251668 0.02512233486410094
-0.9448058875667432 -0.3267848064926557 0.02352711339657586
-0.9266995538476097 -0.3751436887541928 0.02225195916177812
-0.9066853090246855 -0.4212690063444025 0.02131137471891004
-0.8871822983169608 -0.4609489911023318 0.02082299581656796
-0.8672215827930939 -0.4974889057013183 0.02077294013723481
0 0 0
0 0 0
0 0 0
0 0 0
0 0 0
0 0 0
0 0 0
0 0 0
0 0 0
0 0 0
0 0 0
0 0 0
0 0 0
0 0 0
0 0 0
0 0 0
-0.7581357175950159 0.6519573804344757 0.01348361241306847
-0.7788197936946607 0.6270846088308425 0.01430462571600765
-0.8102777267708686 0.5858598530563738 0.01477288312405438
-0.8364268075707145 0.5478333794899314 0.01639463002641051
-0.8609753803272101 0.5082981937740582 0.01882393891950816
-0.8849334638180063 0.4652107791020507 0.02171855479371256
-0.9076923385594273 0.4188991626270832 0.02486181954013039
-0.9289158310960617 0.3692288386483317 0.02802576403091252
-0.9482085035957447 0.3161283856971523 0.0310399333960317
-0.9650735791763847 0.2597894156361537 0.0338000931819358
-0.9789505735577111 0.2008610393202035 0.03620245038993039
-0.9894319487354737 0.1399042844911194 0.0380947503279685
-0.996217824330015 0.07747833011074033 0.0393338893375899
-0.9991057079091421 0.01418958784007101 0.03983013959679525
-0.9979996376422848 -0.04931589675548346 0.03955585409354903
-0.9929184162193532 -0.1123744628000999 0.03853568272185726
-0.9840015526354432 -0.1743094663122696 0.03683957606933623
-0.9715286371046538 -0.2343822885878109 0.03459841155188054
-0.9559649573941187 -0.2917273744907962 0.03203340767334922
-0.937790311918309 -0.3459539910149124 0.0294137208291352
-0.9174426020176307 -0.3969541525237432 0.02695315931900117
-0.8953496814690733 -0.4446741894932727 0.0247752515977002
-0.8722168998774595 -0.4885806334566372 0.02294872936055727
-0.8473104284236994 -0.5306675771096786 0.021376634182902
-0.8173802190843312 -0.5757625974005691 0.01967254137625005
-0.7975432628807474 -0.6029630085679435 0.01898299587063689
0 0 0
0 0 0
0 0 0
0 0 0
0 0 0
0 0 0
0 0 0
0 0 0
0 0 0
0 0 0
0 0 0
0 0 0
0 0 0
-0.7107919605219285 0.7032995942746213 0.01201954868311471
-0.7360191512384976 0.6768299443254747 0.01330546784354957
-0.7615876048058913 0.6478877700460681 0.01502523313489723
-0.7898232984550555 0.6130962205105253 0.01709332072140829
-0.8172476471401815 0.5759410316992225 0.0199552311204809
-0.8439733780116913 0.5358666756594963 0.02357632552317022
-0.8700674761415342 0.4921509372556491 0.02774962917024454
-0.8951383225274568 0.4446207431438939 0.03224559363543129
-0.9187261689248407 0.3931747560533695 0.03682170195764359
-0.9403066769798799 0.33781978552949 0.04124494795565225
-0.959292810172013 0.2787568294248695 0.04529828254223042
-0.9750756058631866 0.2164470582514084 0.04876713878064196
-0.9871191296977306 0.1514924367221392 0.05143797625084624
-0.9949966301282979 0.08461037715726888 0.05312993610607011
-0.9984174335014643 0.01661361021639151 0.05372724109728627
-0.9972488422181432 -0.05162344790606124 0.05319554794211761
-0.9915287779587455 -0.1192048246241175 0.05158383725518638
-0.9814674821363586 -0.1852528992607876 0.04901984112977487
-0.9674387687692554 -0.2489443033809813 0.04570516925233585
-0.949954787868262 -0.3095641656604619 0.04190379869542333
-0.9295819649159033 -0.3666615393713176 0.03790364163168976
-0.9068900351849514 -0.4199965109245973 0.03396166800087277
-0.8824388569950333 -0.4694520391088468 0.03027286973255515
-0.8567640947300874 -0.5150030653507994 0.02696532329888099
-0.830012354692388 -0.5572243451728088 0.02409398689987083
-0.8022999374409111 -0.5965250875251756 0.02174006291138525
-0.7770704979847993 -0.6290837370706508 0.02037382916585755
-0.7524125332690592 -0.6583845555866382 0.0201285057721886
0 0 0
0 0 0
0 0 0
0 0 0
0 0 0
0 0 0
0 0 0
0 0 0
0 0 0
0 0 0
0 0 0
-0.6572241671478423 0.7536152051054165 0.0109780121490896
-0.6841040102303239 0.7292823625664719 0.01220404999387667
-0.7108406302423806 0.7032080201328421 0.01428561575370792
-0.7382350707193869 0.6743262301675242 0.01712062113349122
-0.7667670354361655 0.6415920562771061 0.02068687242064497
-0.7955267122988218 0.605398696550754 0.0250931909823154
-0.8242105208373787 0.5654718829305219 0.03030786953889072
-0.8525528513448629 0.5213879066481879 0.03617024280764702
-0.8801080292693124 0.4728723087492647 0.0424456880475076
-0.9063151229306132 0.4197695061495648 0.04885140381009458
-0.9305229169498578 0.362068812802041 0.05507518340639601
-0.9520129122566642 0.2999601300144089 0.06078926959853347
-0.9700457057965173 0.2338795884282387 0.06566328336577235
-0.9839345130951187 0.1644940510914224 0.06938718250371292
-0.9931109758643227 0.09267474079477939 0.07170761491245109
-0.997181318379516 0.01945227735200944 0.07246397160458624
-0.9959671554925242 -0.05404759114332818 0.07161203161294137
-0.9895247485474232 -0.1266802488740443 0.06923067641853831
-0.9781393150717453 -0.1973613688330599 0.06551313153343433
-0.962294479928414 -0.265140124899132 0.06074576584236589
-0.9426190857433507 -0.3292625971258102 0.05527568476586364
-0.9198141956537024 -0.3892233724479228 0.04946728023852842
-0.8945942154950137 -0.444741709193283 0.04365777945220284
-0.8676479272374564 -0.4957149564319981 0.03812815665839117
-0.8395988343409384 -0.5421978488068574 0.03309516766165166
-0.8109300773922082 -0.5844375863773579 0.02872485352573727
-0.7821671934765507 -0.6225593823658696 0.0251852511848192
-0.754395689783218 -0.6560273671832516 0.02269882691051424
-0.7274129046987987 -0.6858682115090686 0.02133688166080198
-0.7007764470228002 -0.713072753040314 0.02096712115688074
0 0 0
0 0 0
0 0 0
0 0 0
0 0 0
0 0 0
0 0 0
0 0 0
0 0 0
-0.6030142953450538 0.7976718052970967 0.009666987306189992
-0.6285391638721307 0.7776991488400221 0.01107038266850374
-0.654850800707634 0.7556416220339993 0.01327282420574604
-0.6821959659505561 0.7309845274349716 0.01644033732799563
-0.7106411478771554 0.7032526722330524 0.0206115972430378
-0.7401741497718888 0.6719198963770874 0.0258046674472876
-0.7704306472420264 0.6367183565958832 0.03203673148230678
-0.8010947380030048 0.5972495625889418 0.03924513640203181
-0.8317981932757552 0.5530623327988694 0.04726332301331622
-0.8620289650106145 0.5037749597218469 0.05582878683958351
-0.8911300635207534 0.4491264931233184 0.06459568920792838
-0.9183161256914317 0.3890302260807332 0.07315036903974796
-0.9427048452462109 0.3236376088511142 0.08103254214480757
-0.963373636368174 0.2533936141802134 0.0877662409098728
-0.979442469727289 0.1790566822351743 0.09290399906053462
-0.9901664235563862 0.1016806340608137 0.0960807073170534
-0.9950224380791832 0.02255450047891854 0.097065144243975
-0.9937737048994164 -0.05689508274389185 0.09579547489340222
-0.9864981247835486 -0.1352241356226601 0.09238984221030937
-0.9735747348742064 -0.211093819663398 0.08712998860630417
-0.9556314220708515 -0.2833740072034397 0.08042236748757253
-0.9334656739075989 -0.3512122217289855 0.07274483448617865
-0.9079554656242544 -0.4140593292235906 0.06458904184111329
-0.8799823734090411 -0.4716449067469708 0.0564101447350691
-0.8503748425476362 -0.5239286579675059 0.04859412024566778
-0.8198670464091447 -0.5710518493215051 0.04144649079033957
-0.7890776186291633 -0.6132841023215352 0.03520115933029762
-0.7585767531284172 -0.6508906763104478 0.03004391960573126
-0.7289740093773505 -0.6840426907891094 0.0261245254560687
-0.7005542277066866 -0.7132116417232088 0.02351442435553529
-0.6735498534251971 -0.7388079039023298 0.02221432155931721
-0.6480398102457806 -0.7612824677452293 0.02221280352287217
0 0 0
0 0 0
0 0 0
0 0 0
0 0 0
0 0 0
0 0 0
0 0 0
-0.5764221703311471 0.8170875392944539 0.01026813909448094
-0.5967032821532035 0.8023690807361961 0.01220865865464615
-0.6221042769911072 0.7827835635090685 0.01536753882100115
-0.6497220463721709 0.7599145536985387 0.01977709622539867
-0.6789305503952142 0.7337597408230979 0.02549412652496934
-0.7095317079215 0.7039212501894422 0.03255194288719732
-0.7412962792153749 0.6699277995745386 0.04094593726680379
-0.7739433879151902 0.6312304346878325 0.05059417581270543
-0.8070815472296738 0.5872484061512566 0.06130812013235718
-0.8401521883550542 0.5374453777191798 0.07277888684571318
-0.872409347863727 0.4814032071450359 0.0845747120034064
-0.9029254874643673 0.4189040825229421 0.09615057843219604
-0.9306251706438077 0.3500209671847558 0.1068742920221276
-0.954354219649631 0.2751997344839088 0.116073810900346
-0.9729851729274037 0.1953066340627991 0.1231063440870925
-0.9855453975621968 0.1116197537530002 0.1274413587344805
-0.9913439151232821 0.02575218095900428 0.1287403088542853
-0.9900678811808157 -0.06048782661822831 0.1269126214571782
-0.9818243010769236 -0.1452749988318661 0.1221319635853407
-0.9671166058947329 -0.2269461145604137 0.1148082387661382
-0.9467639973890084 -0.3041426608509054 0.1055233391175431
-0.9217862478431748 -0.3758923040287561 0.0949478228247151
-0.8932824048561249 -0.4416233327050657 0.08375784849749064
-0.8623280218837849 -0.5011229302673935 0.07256852922733906
-0.8299022737165442 -0.5544650744626015 0.06189262703498239
-0.7968456755983928 -0.6019301328927429 0.0521256596683919
-0.7638504197536007 -0.64392215499327 0.04355220489333298
-0.7314947643076918 -0.6808766795314743 0.03636422776063995
-0.7002934385637146 -0.713195593427225 0.03067809349676837
-0.6707283319447875 -0.7412279989337711 0.02654351753629526
-0.6437164000473673 -0.7648885352112282 0.02397342304466398
-0.6224670803322954 -0.7823088461853166 0.02296961216010294
0 0 0
0 0 0
0 0 0
0 0 0
0 0 0
0 0 0
0 0 0
-0.5001621072371444 0.8658582098243963 0.01128835522962833
-0.5324806137960713 0.8463597442745551 0.01181436426001089
-0.558370592440398 0.8294690505887075 0.01426098219711188
-0.5848989656937 0.8108968722962021 0.0184245062532477
-0.6129951157014187 0.7897149056257318 0.02423542776072502
-0.6428036611440662 0.7653735751548003 0.03172922429784926
-0.6743249840103887 0.7372983562709305 0.04095057728008441
-0.7074565639483897 0.7048484648901777 0.05190232815873845
-0.7419833353007633 0.6673082563218703 0.06450132696789485
-0.7775336926066307 0.6239173874054214 0.07853948404904587
-0.8135283335320987 0.5739344469293965 0.09365308947564463
-0.8491451067529996 0.5167254615634004 0.1093040943859253
-0.8833103300216713 0.4518770051704779 0.1247799385925695
-0.9147285824238406 0.3793270475787167 0.1392214476008792
-0.9419638111854843 0.2994915460979431 0.1516871524974349
-0.9635756414168993 0.2133510284268316 0.1612554555270106
-0.9782964876325092 0.1224584056578535 0.1671523890634886
-0.985214858341341 0.02884205981883642 0.168878117258742
-0.9839182419433874 -0.06519249753039461 0.1662974186113022
-0.9745543426515071 -0.1573233482612244 0.1596658927603682
-0.9577934182082373 -0.2454723184384062 0.1495831170869685
-0.9347063336186502 -0.328002605080333 0.1368881329907574
-0.9065970488254909 -0.4038174367507448 0.1225286449650378
-0.8748342477061212 -0.4723581417273695 0.1074375399212521
-0.84071581266111 -0.5335276110205063 0.09244030841748835
-0.8053807233510804 -0.5875765722611133 0.07820269934196969
-0.769767505616236 -0.6349842065902984 0.06521537148745295
-0.734612265916974 -0.6763503598936143 0.05380529189686427
-0.7004769166725966 -0.7123074477491754 0.04416094530132732
-0.6677845587938109 -0.7434660759755278 0.03635900040025403
-0.6368330267965667 -0.7704028596603566 0.03038305133240537
-0.6077638389164747 -0.7936879741897074 0.02612500205066998
-0.5799477492455076 -0.8143197300067918 0.02332349602299553
-0.5467623670367269 -0.8370122203091425 0.02148155128370572
0 0 0
0 0 0
0 0 0
0 0 0
0 0 0
-0.4365522521180072 0.8996201289129983 0.0102837165098764
-0.4645312638286857 0.8854848412739111 0.01128276561131455
-0.4914795812722658 0.8707892246330123 0.0131889141127951
-0.5172552963197656 0.8556667828489684 0.01677245235638393
-0.5437736205830977 0.8389372718414613 0.02223743405059598
-0.5718776851965889 0.8198016569168372 0.02968428019337565
-0.6019084913482058 0.7976013579172055 0.03922042696804991
-0.6340098785434708 0.7716452189430086 0.05094241839262072
-0.6681957148588108 0.7411499844093369 0.06489366112619989
-0.7043386641626549 0.7052258609273571 0.08101562346137009
-0.7421223175483257 0.6628984951937971 0.09909616978723503
-0.7809791453301227 0.6131698025881093 0.1187197024654687
-0.8200341909075624 0.5551213881650207 0.1392270453048521
-0.8580738039316876 0.4880632634348318 0.159698459264781
-0.8935625640754836 0.4117195855608353 0.1789774481560754
-0.9247319982877241 0.3264224398932617 0.1957527064357529
-0.9497534395474934 0.2332610686319186 0.2087047625915625
-0.9669806661740445 0.1341218742721416 0.2167019014391148
-0.975213488361003 0.0315690854412501 0.219002385747658
-0.9739087938095999 -0.07143663029143162 0.2154030389593764
-0.9632708174023875 -0.1719211387823406 0.2062824626106607
-0.9441918086382003 -0.2672765368707853 0.192522937176024
-0.91806875194212 -0.3555359575321974 0.1753395266592816
-0.8865606872517442 -0.4354895557071469 0.1560736835270639
-0.8513566490435299 -0.5066493671290274 0.1360083634087522
-0.8140016204781451 -0.5691129991252224 0.1162400795149761
-0.7757962460208173 -0.6233869260004679 0.09761621356974451
-0.7377623118566112 -0.6702163622913346 0.08072669274136071
-0.7006553901709524 -0.7104471602650899 0.06593069615633844
-0.6650035361262295 -0.7449287267617822 0.05339933505840461
-0.6311481534087769 -0.7744606446579371 0.04315922062204717
-0.5992601083462076 -0.7997833444910437 0.03512726034878983
-0.5692855266367272 -0.8216235922825159 0.02913179992237241
-0.5406607738862934 -0.8408713256127567 0.0249267194576183
-0.5117456908110116 -0.8588483597740694 0.02226752904456343
-0.4828451586777734 -0.8754485180254751 0.02122369026428495
0 0 0
0 0 0
0 0 0
0 0 0
-0.4071036203574637 0.9133274093627863 0.009984267549838109
-0.4258490602268181 0.9047188140485082 0.01168098500110047
-0.4487392930650967 0.8935403654083046 0.0147872325142381
-0.472965022056998 0.8808613512778626 0.01968165987818422
-0.498619504728374 0.8664108065647289 0.02666277878027636
-0.5261355852582554 0.8496397539114049 0.03596713080466021
-0.5558575272688441 0.8299015958309972 0.04780952432026063
-0.5880219940424077 0.8064362245015734 0.06237587942496532
-0.6227554984278495 0.7783377719248192 0.07978660271617131
-0.6600408369945788 0.7445385939152631 0.100041869585578
-0.699653999089287 0.703822855479095 0.1229539330953683
-0.7410815918832119 0.6548837695718065 0.1480720180292852
-0.7834347434760099 0.5964401893235036 0.1746112919441942
-0.8253838827727109 0.5274247972582834 0.2014063784891177
-0.8651491942647143 0.447240750382192 0.2269197718593269
-0.9005871111387781 0.3560522341507753 0.2493384483126318
-0.9294014251389788 0.2550331456224531 0.2667790951022042
-0.9494698932610065 0.1464679299959966 0.2775861438790124
-0.9592197256000135 0.0336115237189895 0.2806559878091364
-0.9579380627057222 -0.07971010840991445 0.2756827282164896
-0.9459051810260846 -0.1896655606352775 0.2632306281892658
-0.9243023993320815 -0.2929751167584561 0.2446030571136134
-0.8949387752561971 -0.3872917999349567 0.2215618429379906
-0.8599032381277553 -0.4713279365221961 0.1960010135461783
-0.8212505380521615 -0.5447558993616185 0.1696719300878868
-0.7807855668363265 -0.6079759147562818 0.1440110610208047
-0.7399582785009936 -0.6618490580888063 0.1200731876182408
-0.699847036568766 -0.7074626091997498 0.09854330007766809
-0.6611966731718354 -0.7459571357104791 0.07979292618468301
-0.6244800123751063 -0.7784181699401167 0.06395206682403466
-0.5899584859568152 -0.8058226887049065 0.05097822295781634
-0.5577247874543239 -0.8290268148449128 0.04071365529066732
-0.5277209711097164 -0.8487791945008234 0.03293107398112691
-0.4997749545743503 -0.8657224659035402 0.02737894830155034
-0.4740407835879242 -0.8801797612413005 0.02385211513793831
-0.4535827134176009 -0.8909357975447606 0.02227390271163492
0 0 0
0 0 0
0 0 0
-0.3312254071125157 0.9435106280362824 0.008799117326596941
-0.3597769346885548 0.9329846877243829 0.01000648479449543
-0.380934102984654 0.924517487305107 0.01251498503106866
-0.4023385770508905 0.9153381610821198 0.01672484031214957
-0.4249516380101906 0.9049248328133388 0.02295979769523352
-0.4492072764356247 0.892869691679723 0.03156796599472037
-0.4755244835039923 0.8786562279214382 0.04289170925867374
-0.504287345370092 0.861635223873273 0.05726267790140427
-0.5358237652077213 0.8409936106118694 0.07498426200631249
-0.5703803439234123 0.8157170538204896 0.0962909724337121
-0.608073713778984 0.7845614071575586 0.1212837870862597
-0.6488118582602995 0.7460500275251888 0.1498416798173383
-0.6921874032295017 0.6985195592328565 0.1815131515332559
-0.7373548023128624 0.6402426548042519 0.2154001821618592
-0.7829183155820101 0.5696556397340276 0.2500627186236347
-0.8268778171140267 0.4857015417872774 0.2834908955684519
-0.8666953772126433 0.3882542691115315 0.3132055964297314
-0.8995389501908863 0.2785197848393857 0.3365358919082775
-0.9227095883793535 0.1592454935075748 0.3510667861110368
-0.9341672000353018 0.03456939712867032 0.355157147134003
-0.9329822688260732 -0.09054500925640846 0.348347078866623
-0.9195315951621374 -0.2111463590194841 0.3314798041682015
-0.8953582960647767 -0.3231141134316369 0.3064813067207628
-0.8627705781980771 -0.4236822304133573 0.2758990703639967
-0.8243525134766364 -0.5115569075840863 0.2423890753061237
-0.7825506446696263 -0.5867026279980827 0.2083135013082323
-0.7394192761483631 -0.6499631542409302 0.1755193214133732
-0.6965240702622566 -0.7026714435517197 0.1452826967062505
-0.6549581072019048 -0.746337778535402 0.1183629931242818
-0.6154167593425993 -0.782442774562305 0.0951079221489681
-0.5782898183124164 -0.8123240379562532 0.07556813742999928
-0.5437453831434923 -0.8371313830540126 0.0595987064978096
-0.5117938614358221 -0.8578249785693339 0.04693985022485436
-0.4823324517994269 -0.8751946780537173 0.03727843139944057
-0.4551854763063569 -0.8898811002698936 0.03029537162996706
-0.4301391236157462 -0.9023968657804159 0.02569495990966712
-0.406438771686007 -0.9133841382001983 0.02317198642003258
-0.3766028764141433 -0.9261053057190444 0.02234359406246323
0 0 0
0 0 0
-0.3014638300791007 0.9534407879106084 0.008379922579412162
-0.3164038895742517 0.9485687746166213 0.01028875525054094
-0.3338704706601927 0.9425195517275504 0.01368953733470336
-0.3527961407551971 0.9355081387383024 0.0189579909968228
-0.3732406808650907 0.9273556924576579 0.02651063586073245
-0.3954855244451224 0.9177355794049306 0.03677779559275268
-0.4199132345927933 0.9061744891023792 0.05020628161753424
-0.446940982417702 0.8920318154450723 0.06725324132907783
-0.4769803545090531 0.8744607581079642 0.08836358945664054
-0.5103991733640842 0.8523579678670212 0.1139235640368614
-0.5474639087029841 0.8243144424407169 0.1441838016259102
-0.5882492300284314 0.7885869593115841 0.1791464511919422
-0.6325089966943553 0.7431200563089909 0.2184146309477041
-0.6795141172177969 0.6856617146650362 0.2610145159647637
-0.7278832110286837 0.6140233233218788 0.3052235074815305
-0.7754631356965269 0.5265201350548838 0.3484730585820028
-0.819349619493275 0.4225703577297725 0.3874280498419763
-0.8561454679830985 0.3033200122675874 0.4183442455801095
-0.8824960559345435 0.1720344215999455 0.4377269343377746
-0.895804160729723 0.03396167701188563 0.4431495347101881
-0.8948729388372053 -0.1044594631627307 0.433924698412774
-0.8801896069622942 -0.236836280998325 0.4113086818904306
-0.8537198985267972 -0.3580199901530455 0.3781322804392764
-0.8183350110713944 -0.4648130968925767 0.3380482134428639
-0.7771442942500677 -0.5560379028512548 0.2947347901204433
-0.7329720242230152 -0.6321306372839923 0.2513222415811001
-0.6880755247301988 -0.6945492613001313 0.2101270946229998
-0.6440772621399928 -0.7452252677670627 0.1726377151023496
-0.6020300015100343 -0.786167731822399 0.13964302604517
-0.5625377445015599 -0.8192306648340515 0.1114109680716178
-0.5258815581961886 -0.8460078391268571 0.0878596772419168
-0.4921257754547922 -0.8678092835861886 0.06869693191580539
-0.4611987794196324 -0.8856810399999854 0.05352365128038755
-0.4329560484894713 -0.9004403576136319 0.04190730791898011
-0.407244916092148 -0.912706841745839 0.03343350635866182
-0.383996361126505 -0.9229177904846753 0.02774070382104735
-0.3633731977879657 -0.9313205881586741 0.02453326723305655
-0.3466881266292281 -0.937685744972652 0.02351141274781805
0 0 0
0 0 0
-0.2597823523441853 0.9656248527412706 0.009042852366378409
-0.2699675377875265 0.9628042520641397 0.01120271164282575
-0.2840515043341096 0.9586883558500288 0.01521115521901937
-0.3001573017604635 0.9536498771978179 0.02138938803387995
-0.3179348165164648 0.9476322993997447 0.03017412104757465
-0.3375407486870808 0.9403708422235901 0.04205855527071712
-0.3593283590787538 0.9314325977097231 0.05758859509908781
-0.3837387525125986 0.9201961713768019 0.077353577832893
-0.4112509420234643 0.905801684251085 0.1019606369767773
-0.4423410558991495 0.8870821622600953 0.131983437089578
-0.4774240839918772 0.8624874401753233 0.1678739395032301
-0.5167596641851383 0.830020065761647 0.2098240689346519
-0.5603085450462232 0.7872188886764675 0.2575669925653734
-0.6075364553428183 0.731248820477526 0.3101203282271409
-0.6571847485796454 0.6591766149306671 0.3655056724085886
-0.7070692947531376 0.5685097381546853 0.4205350045365913
-0.7540242120514061 0.4580092671971024 0.4708237449426578
-0.7941409747073778 0.3286240387843949 0.5112204548175354
-0.8233989802938719 0.1841675760710632 0.5367461440710313
-0.8385935522952697 0.03124380340065652 0.5438609002289657
-0.838216803772069 -0.1218443506166253 0.5315510738367001
-0.8228577706339663 -0.2669001554795938 0.5016666186943944
-0.7949171090020544 -0.3975630788982223 0.4583125441364017
-0.7578247344157591 -0.5102386887905253 0.406642536349813
-0.7151707158507274 -0.6040464458685137 0.351651444506025
-0.6700775984550368 -0.6801153994814725 0.2973870465183157
-0.6249142189387392 -0.7407017065192201 0.2466641460117375
-0.581278552889486 -0.7884529081922153 0.2011398904094921
-0.5401242874108493 -0.8259321573730581 0.1615605941001942
-0.5019301283714418 -0.8553781208468354 0.1280406834157183
-0.4668557410764356 -0.8786267809078683 0.1003030253554125
-0.4348639073306945 -0.8971239436724906 0.07785892235703187
-0.4058101039287347 -0.9119771568864989 0.06013172928302314
-0.3795133847346582 -0.9240150861779192 0.04653720364241019
-0.3558350980453164 -0.9338343419738503 0.0365349798049121
-0.3348186797758447 -0.9418155519884953 0.02966340684691105
-0.3170417908794465 -0.9480669826942619 0.02556362965133452
-0.304709881978933 -0.9521443183840166 0.02393918948963369
0 0 0
0 0 0
-0.2106482695405827 0.9775068488762372 0.01037626809632223
-0.2194817270115727 0.9755366469647653 0.01249087413914073
-0.2312015726852959 0.9727592619894145 0.01688937540748277
-0.2445072579857223 0.9693545903267006 0.02383021201872485
-0.2592404040627446 0.9652237042034363 0.03372853013668898
-0.2756129754108672 0.9601129915942681 0.04712251221096946
-0.2939949093225562 0.9536178725095201 0.06465250592852638
-0.3148467964657091 0.9451427311772022 0.08704431318689636
-0.3386900340686173 0.9338336297808573 0.1150817653362475
-0.366078082609457 0.9184881209569842 0.1495540340274745
-0.3975480265871215 0.897448308028111 0.1911598832761864
-0.4335335418075357 0.8684940421159318 0.2403471800062214
-0.474220699726296 0.8287745693338265 0.2970647087363823
-0.5193333591540681 0.7748510440047853 0.36041465241364
-0.5678558579509273 0.7029630645564829 0.428232010083522
-0.6177488014324226 0.6096524388309787 0.496699428383247
-0.6657914942639725 0.492815133878212 0.5602275698199312
-0.7077556111984026 0.3530311475182158 0.611924017913292
-0.7390838454191395 0.1946524837538708 0.6448763292360061
-0.7560126940308491 0.02586568895843188 0.6540456961091655
-0.7567074960393319 -0.1427724338029166 0.6379731950355562
-0.7418012583899403 -0.3009096519364576 0.5993198431743941
-0.7140331863888517 -0.440836001871117 0.5438935816772167
-0.6772534398283167 -0.5586593098381266 0.4787771441619789
-0.6353653614899331 -0.6540257827843043 0.410561972023888
-0.5916237476265492 -0.7289901308297125 0.3443177753140193
-0.5483737673416934 -0.7867698558095459 0.2833362053831172
-0.507099140948657 -0.8308089714227984 0.2293619721150934
-0.4686090935775291 -0.8642421036881022 0.1830057475305338
-0.4332461599417304 -0.8896735985413166 0.1441480244550311
-0.4010598620204722 -0.909147738773641 0.1122558513347717
-0.3719331741236125 -0.9242109253951796 0.08660184389791971
-0.3456690119723621 -0.9360040735313984 0.06640262415506702
-0.3220525551854696 -0.9453525057634682 0.05089981871521276
-0.3009114048605843 -0.9528377168863749 0.03940319407851742
-0.282214569274093 -0.9588402388503041 0.03131027388780374
-0.2663309436514325 -0.9635277961541202 0.02611540717891998
-0.2549138459249705 -0.966679334328204 0.02345198794389138
0 0 0
-0.121746994012148 0.9925031461748952 0.01073192815573403
-0.151017618505529 0.9884680159171637 0.01116514261904112
-0.1647994348910336 0.9862341064788611 0.01354376156899491
-0.175566706354559 0.984295682762738 0.01839403475169342
-0.1861870275860018 0.9821693544218206 0.02603363196545406
-0.1975510368009144 0.9795971677366715 0.03691851596658149
-0.2101392602260197 0.9763060732844951 0.05165213044464165
-0.2243804604999814 0.9719136596784611 0.07097356603860394
-0.2407409974381132 0.9658553642865981 0.0957454303416332