# OOMMF: rectangular mesh v1.0
# Segment count: 1
# Begin: Segment
# Begin: Header
# Title: 
# Desc: time = 3.4e-09
# Desc: stepsize = 2.956531843028517e-14
# Desc: step = 21758
# meshunit: m
# valueunit: (none)
# valuemultiplier: 384000.0000000001
# xmin: 0
# ymin: 0
# zmin: 0
# xmax: 9.357999999999999e-08
# ymax: 9.357999999999999e-08
# zmax: 2.3395e-08
# ValueRangeMaxMag: 1
# ValueRangeMinMag: 0
# meshtype: rectangular
# xbase: 1.16975e-09
# ybase: 1.16975e-09
# zbase: 1.16975e-09
# xstepsize: 2.3395e-09
# ystepsize: 2.3395e-09
# zstepsize: 2.3395e-09
# xnodes: 40
# ynodes: 40
# znodes: 10
# End: Header
# Begin: Data Text
0 0 0
0 0 0
0 0 0
0 0 0
0 0 0
0 0 0
0 0 0
0 0 0
0 0 0
0 0 0
0 0 0
0 0 0
0 0 0
0 0 0
0 0 0
0 0 0
-0.9862510602452588 0.1646698266030741 0.01388143982502649
-0.9909555326453954 0.133361574872936 0.01489371232736328
-0.9957250012781714 0.09104969443643991 0.01554589890021588
-0.998885515801363 0.04446753711255415 0.01582290951083245
-0.9998681341400105 -0.003321005343366417 0.0158960767135293
-0.9986189942840922 -0.05004128683707416 0.01599918331406937
-0.9955722548730612 -0.0925574149734055 0.0164015322579556
-0.9921345742511946 -0.1239786713428185 0.01727065799180362
0 0 0
0 0 0
0 0 0
0 0 0
0 0 0
0 0 0
0 0 0
0 0 0
0 0 0
0 0 0
0 0 0
0 0 0
0 0 0
0 0 0
0 0 0
0 0 0
0 0 0
0 0 0
0 0 0
0 0 0
0 0 0
0 0 0
0 0 0
0 0 0
0 0 0
0 0 0
0 0 0
0 0 0
-0.9268082249255601 0.3752025520981805 0.01579743996170329
-0.9381752855277209 0.3457427987383002 0.01700149245172122
-0.95236623672327 0.3044557672271603 0.01747103178627916
-0.9666505615757925 0.2555310712186458 0.01704592171329465
-0.980540110853534 0.1956466466673059 0.01623208720951064
-0.9890926776018498 0.1463417685852663 0.01672608387336573
-0.9951134217983455 0.09721287327731963 0.01728973759070589
-0.9987410900371213 0.04696695140935909 0.01761648508565766
-0.999835541473637 -0.003829800054865764 0.01772632611846033
-0.9983664387091939 -0.05431078655351222 0.01774239338588098
-0.9944306144758619 -0.103882774146799 0.01777982645371363
-0.9879405129141705 -0.153815106870656 0.01773290278701093
-0.9765762199601418 -0.2145190235896433 0.01674739163291714
-0.9642580880556926 -0.2645279690956207 0.01520832618422397
-0.9516337509706768 -0.3068990657349962 0.01435853281034472
-0.9413507644755807 -0.3371113701212141 0.01465136021797302
0 0 0
0 0 0
0 0 0
0 0 0
0 0 0
0 0 0
0 0 0
0 0 0
0 0 0
0 0 0
0 0 0
0 0 0
0 0 0
0 0 0
0 0 0
0 0 0
0 0 0
0 0 0
0 0 0
0 0 0
0 0 0
0 0 0
-0.8771881416010527 0.4799246013334879 0.01460620653637982
-0.8923496329790774 0.4510727723876787 0.01566800984804036
-0.9143309312625884 0.4046290370913594 0.01656171727227056
-0.9319191214624812 0.362223706335575 0.01790914908965327
-0.948351146237511 0.3166571403807866 0.01893036914223139
-0.9635449086727711 0.266835887727843 0.01948891970516632
-0.9769546446584645 0.2125171941471382 0.01990136859817214
-0.9870759333721333 0.1589233324699219 0.02060281908346108
-0.9942331993583097 0.1051109544317699 0.02126105717459587
-0.9984780199246315 0.05072008700205993 0.02165909743941418
-0.999755303765653 -0.00404586851204972 0.0217477249483563
-0.9980365964096799 -0.05880562921985896 0.02156038494640975
-0.9933314555402486 -0.1133418030727676 0.02112475113473566
-0.9855782293908514 -0.1679911316111153 0.02036009456781783
-0.9744837081160063 -0.2236468056773711 0.01906853237105601
-0.9612869765083497 -0.2749912761210157 0.01752560563205361
-0.9465484547794076 -0.3221465910240813 0.01635838152991442
-0.9304363554646854 -0.3661113969593613 0.01583140695130504
-0.9101192886227457 -0.4140545120900953 0.01554803828975642
-0.8959550571384328 -0.4438677055434906 0.01568424571421715
0 0 0
0 0 0
0 0 0
0 0 0
0 0 0
0 0 0
0 0 0
0 0 0
0 0 0
0 0 0
0 0 0
0 0 0
0 0 0
0 0 0
0 0 0
0 0 0
0 0 0
0 0 0
0 0 0
-0.8395770681724988 0.543037124763646 0.01486700128819076
-0.8609424590664284 0.5084624936460117 0.01561969051966113
-0.8818282793126245 0.4712590439503551 0.01714057465583606
-0.9035838822295792 0.4279942621062703 0.01889654410284204
-0.9236911533581286 0.3825703852567719 0.02084594762572809
-0.9422224156058752 0.3342193839950618 0.0226786880526632
-0.9589438973518247 0.2825565799478101 0.02425656323325342
-0.9733852459867547 0.2277367530377268 0.02563462913985626
-0.9848507447373092 0.1713086676008918 0.02687658823537391
-0.9931243253502268 0.1137061249232508 0.02783867009385438
-0.9980700686418283 0.05523419409472347 0.02837819381147242
-0.9995889080328106 -0.003715055200822273 0.02842909253964019
-0.9976400248401553 -0.06269842843801039 0.02798728118873167
-0.9922464064545704 -0.1213023149376778 0.02707059786467797
-0.9834817577995455 -0.1791752130540544 0.02568803422898731
-0.9715075207544958 -0.2358027820688833 0.02387854865830451
-0.9569208496925476 -0.2895241898242779 0.02186849172411384
-0.9401853781690608 -0.3400753862899496 0.02000465737874991
-0.9215835383089335 -0.3877395407129564 0.01848865829883658
-0.9011508502531875 -0.4331593977357558 0.0173228531470375
-0.8813256871071413 -0.4722162997064113 0.01663729355121957
-0.8610947983094772 -0.5081797526713341 0.01640388061592885
0 0 0
0 0 0
0 0 0
0 0 0
0 0 0
0 0 0
0 0 0
0 0 0
0 0 0
0 0 0
0 0 0
0 0 0
0 0 0
0 0 0
0 0 0
0 0 0
-0.7655709156785644 0.6431598724354066 0.01570196025836249
-0.7861388351648514 0.6178317623252549 0.01642088023582836
-0.8174219909514068 0.5757977939666857 0.01667900393115214
-0.8434036877363078 0.5369737534261946 0.0181495907441603
-0.8677316170053825 0.4966128714670084 0.02043273702948419
-0.8913824277644183 0.4526602252648755 0.02315357285524126
-0.9137332889332601 0.4054762295554852 0.02608647083593918
-0.934434226083464 0.354953655367596 0.02899275193869871
-0.95308220422588 0.3010475942436193 0.03169634029452627
-0.9691795432051882 0.2439848232809118 0.03409426698382186
-0.9821771801464043 0.184459906522996 0.03609057612707856
-0.991687259285474 0.123072947085717 0.03754236895163615
-0.9974378732786282 0.06040988040899372 0.03831886347972194
-0.9992603107613345 -0.002908613533156875 0.03834542090622264
-0.9970950363980593 -0.06623405299688094 0.03761035248384042
-0.9909967535811295 -0.1289123906010098 0.03615286905895507
-0.9811371094270874 -0.1902899726913321 0.03405435064996871
-0.9678211822221339 -0.2496654473617572 0.03145351547608323
-0.951531838477826 -0.3062197825017286 0.02857630430272649
-0.9327527527448201 -0.3596002031327394 0.02569039030167614
-0.9119178649753621 -0.4097276115688152 0.0230019968022499
-0.8894445750149741 -0.4565775095333258 0.02062342757102642
-0.8660267579663291 -0.4996510548731224 0.01861391550707883
-0.8408991005158485 -0.540929345346684 0.0168566335442255
-0.8107556858664106 -0.5851941867498173 0.01493256942075129
-0.7907796541817175 -0.6119384874014505 0.01410057335953092
0 0 0
0 0 0
0 0 0
0 0 0
0 0 0
0 0 0
0 0 0
0 0 0
0 0 0
0 0 0
0 0 0
0 0 0
0 0 0
-0.7183694880712068 0.6955091804202053 0.01456909604354959
-0.743578664710736 0.6684630926142968 0.01574367172956232
-0.7691320298358922 0.6388535465226677 0.01738006835224987
-0.7973280481353786 0.6032361425338212 0.01934269881743994
-0.8246805363194335 0.5651668460029735 0.02210088674560617
-0.8512655008353813 0.5241102650582046 0.02560228794668958
-0.8771180662803766 0.4793606551908446 0.02961857625842616
-0.9018227158904225 0.4307740030375963 0.03390497619799472
-0.924900966899083 0.3782835385916291 0.03820688236085585
-0.9458167011895903 0.3219360228525925 0.04228433445964996
-0.9639802401803708 0.2619798488560469 0.04592009729036656
-0.9787927950949604 0.1989291155653008 0.04890676078622467
-0.9897421722794215 0.1334350772879549 0.0510442216197776
-0.9964380267147149 0.06625303187669619 0.05217082215213447
-0.998635369538911 -0.001782465331413754 0.05219407555675562
-0.9962515935958347 -0.06979345689296612 0.05110416453371177
-0.9893736798240679 -0.1368992826485786 0.04897252374226258
-0.9782545097894778 -0.2022553366798397 0.04594445408395192
-0.9632996485509914 -0.2650852756636506 0.04223249611214117
-0.9450396568148685 -0.3247277488646151 0.03810428013431672
-0.9240453584281566 -0.3807818020486555 0.03384368177307594
-0.900880210587509 -0.4330507231508611 0.0296970932975117
-0.8760894740127322 -0.4814553839307897 0.02584466691890956
-0.8501877718392052 -0.5260029302206739 0.02239799130171313
-0.8232919149148538 -0.567286788712883 0.01939386984738328
-0.7954833299170924 -0.6057397479790328 0.01690057816500607
-0.7701961672235534 -0.6376209597246677 0.01540700210752013
-0.7454949132679188 -0.6663417476350449 0.01503361734020781
0 0 0
0 0 0
0 0 0
0 0 0
0 0 0
0 0 0
0 0 0
0 0 0
0 0 0
0 0 0
0 0 0
-0.6648181604665243 0.7468765432056832 0.01386516220732211
-0.6917584022490141 0.7219733703517279 0.01499217865613016
-0.7185940018208669 0.6952214703758397 0.01702256371780997
-0.7460892761886452 0.6655507041693943 0.01982554251279411
-0.7747009302301888 0.6318963753021145 0.0233546479427209
-0.8034947644687829 0.5946665479225087 0.02771029146691528
-0.8321325298140415 0.5536034305778501 0.03284348455505597
-0.8603127683882585 0.5083051218356661 0.03857257657660949
-0.8875572705469311 0.4585292446722946 0.04464328930013917
-0.9132778044726892 0.4041626345302827 0.05075644498075872
-0.9368040559176795 0.3452474719090737 0.05658925654731657
-0.9574104931161421 0.2820362747901331 0.06181170903323555
-0.9743671145436181 0.2150333653437906 0.06610126991871583
-0.9870154555029265 0.1449707236397448 0.0691663204581446
-0.9948337776637511 0.07277178022056485 0.07078151469698346
-0.9974889194776134 -0.0005017365617290881 0.07082092755538497
-0.9948699351840065 -0.07371904821667936 0.06927708132562095
-0.9870988009002127 -0.1457574949385501 0.06626243227198952
-0.9745165261825671 -0.2155783779219656 0.06199599317371647
-0.9576464956356195 -0.2822929500975515 0.056779219103805
-0.9371385595712587 -0.3452160528434089 0.05096270228237712
-0.9136968279774748 -0.4039081229028122 0.0449036167477294
-0.8880243510426441 -0.458145940020814 0.03892363803314209
-0.8607879241555149 -0.5078743829115028 0.03328304088119429
-0.832581608355072 -0.5531853056259981 0.02817593065635911
-0.8038539991541496 -0.5943524638513239 0.02374651043290886
-0.7750956411827312 -0.6315226712123576 0.0201460359460299
-0.7473655228892377 -0.6641802312821176 0.01758964384313867
-0.7204377904244739 -0.6933317820734434 0.01613784667061524
-0.6938386802102571 -0.7199602991566023 0.01565418418262711
0 0 0
0 0 0
0 0 0
0 0 0
0 0 0
0 0 0
0 0 0
0 0 0
0 0 0
-0.6105109953527739 0.7919034035130826 0.01285784032256404
-0.6361359249258932 0.771446654042231 0.01418255920925759
-0.6626214139675144 0.7487757280312418 0.01636370566145975
-0.6901798850590222 0.7233737763530629 0.01954753039704056
-0.7188480042200759 0.6947613443220144 0.02375334217916905
-0.7485857853315221 0.6624043404481722 0.02897950577579649
-0.7789975827258946 0.6260367136519285 0.03522498072541119
-0.8097292391272591 0.5852695166329956 0.04240462477807105
-0.8403701633013205 0.5396714653082781 0.05032591941462325
-0.8703656435272987 0.4888946357481989 0.05869992933510455
-0.8990197486976752 0.4327278678588599 0.06715715769665433
-0.9255170311602215 0.3711510538577179 0.07526699311566794
-0.9489603008522308 0.3043972481851662 0.08256308317729738
-0.9684338225301909 0.2330019050609896 0.0885778957613674
-0.9830905947319962 0.1578118175283583 0.09288871189700668
-0.9922449452399564 0.07995339670778202 0.09517049438057641
-0.9954537664150854 0.0007597120546630672 0.09524296177468458
-0.9925704891728594 -0.07833542257338198 0.09309879480100494
-0.9837606303500436 -0.1559191788060549 0.08890574702306815
-0.9694760569229679 -0.230716301212552 0.08298291033635972
-0.9503942834754742 -0.3016811750300884 0.07575734003781023
-0.9273361957714152 -0.3680529154657249 0.06770990643457181
-0.9011789967233127 -0.429368792499051 0.059319945150597
-0.8727846446775357 -0.4854317682251811 0.05101923571439594
-0.8429492375518729 -0.5362587375925734 0.04316421279642571
-0.812367415547416 -0.5820318511049541 0.03602924445713521
-0.7816157624262368 -0.6230470433397843 0.02981915009527791
-0.7512244127005087 -0.6595847216675084 0.02469568192155275
-0.7217686123495058 -0.691822095090233 0.02079083865621257
-0.6935034098595035 -0.7202243832457036 0.0181620013100682
-0.6666321790445736 -0.7451974370687349 0.0168023108074961
-0.6412053486014521 -0.7671875012364395 0.01670445663522011
0 0 0
0 0 0
0 0 0
0 0 0
0 0 0
0 0 0
0 0 0
0 0 0
-0.5838239922199759 0.8117655689509415 0.01364577495355904
-0.6043007223385232 0.7966035148430664 0.01560375342059353
-0.6299877711155328 0.7763769485372675 0.01882131836092918
-0.6579399032185043 0.7527091000179714 0.02332583338189986
-0.6875011453879314 0.725597620953938 0.02915934766532569
-0.7184436632526082 0.6946354723995848 0.03633542646478257
-0.7505029166755924 0.6593451562037029 0.04482562941156304
-0.7833546029714823 0.6191795191233189 0.05451870414459705
-0.8165564468208251 0.573572655338753 0.06519185687645586
-0.8494948315917609 0.5220214119517224 0.0764995200168949
-0.8813696348803691 0.4641637260013553 0.08797500881149695
-0.9112076080808771 0.3998632358658687 0.09904588622654835
-0.937905746590598 0.3292980886892841 0.1090668570094346
-0.9603107352219097 0.2530350578858068 0.1173735545098675
-0.9773321142760458 0.1720619197592069 0.1233557220946382
-0.9880719108498109 0.08775890033651819 0.1265396159363837
-0.9919443923732416 0.001802021117675869 0.1266612614778941
-0.988757446447933 -0.08399017055640193 0.1237108052825973
-0.9787349224818245 -0.1678370446011934 0.1179350582907116
-0.9624751753340287 -0.2481652990821233 0.1097976374846489
-0.9408586757969892 -0.3237334321826625 0.09990804304343424
-0.9149296093306845 -0.3936926077400106 0.08893784672944496
-0.8857788894461397 -0.4575838269924724 0.07754224839715407
-0.8544500512163969 -0.5152856706641639 0.06630073592712775
-0.8218759876542405 -0.5669384545693342 0.0556834773330561
-0.7888450399813463 -0.6128650393079165 0.04604287665789053
-0.75599770375777 -0.6534920580823619 0.03762448586037485
-0.7238653794828001 -0.6892628565403055 0.0305880202059514
-0.6929229166237953 -0.7205772464185277 0.02502525846949044
-0.6636182598494201 -0.7477774557990835 0.02096859063161931
-0.6368359486603067 -0.7707792050675046 0.01842258205116556
-0.6157444901057462 -0.7877538006828484 0.01739748298291981
0 0 0
0 0 0
0 0 0
0 0 0
0 0 0
0 0 0
0 0 0
-0.5070417494231025 0.8617903660718704 0.01503427044024921
-0.5396742241846388 0.8417313000680051 0.0154967814894992
-0.5659194541782873 0.8242638840099428 0.01800613504871512
-0.5928608914629184 0.8049959530060093 0.02230423766327468
-0.6214181816682317 0.7829677840509481 0.02830004647514907
-0.6517160770102358 0.7576076805678517 0.03601051667204333
-0.6837273088972792 0.7283203764475585 0.0454576321355433
-0.7173121908094884 0.6944479666334983 0.0566148616062179
-0.7522069969408856 0.655266060009039 0.06936154808973276
-0.7879797005949511 0.6100205553752565 0.08344407390554566
-0.8239811234292667 0.5579992676085549 0.09844757782982273
-0.8593155583420142 0.4986284703649582 0.1137823348892681
-0.8928420504347737 0.431591824010456 0.1286917651707219
-0.9232182341368809 0.356961301691082 0.1422909738957007
-0.9489973783239363 0.2753144062974511 0.1536422911160112
-0.9687779545497938 0.1877999302601814 0.1618655645052033
-0.9813852860178749 0.09611595740613721 0.1662667829709678
-0.9860461311868477 0.002381778501177644 0.1664552621656055
-0.9825096464374236 -0.09108218576130916 0.1624156091462602
-0.971079490270883 -0.1820188521261962 0.1545113621903034
-0.9525492887198221 -0.2684787499838741 0.1434190132669194
-0.9280643171965076 -0.3489886921598176 0.1300135219550629
-0.8989512296887866 -0.4226190006535647 0.1152383049493535
-0.8665580859105723 -0.4889570141984379 0.09999060960486683
-0.8321329130901066 -0.5480171335410213 0.08504137991386776
-0.796750066133702 -0.6001242097862616 0.07099482336308625
-0.7612803233556965 -0.6457983104399304 0.05828217141096274
-0.72639670147699 -0.6856544350841017 0.04717867879508433
-0.6926069279571283 -0.7203224478790462 0.03783139473145695
-0.6602902180947006 -0.7503996134661254 0.0302861023960103
-0.6297103195803354 -0.7764434394516002 0.02450507593541945
-0.6009840219919282 -0.7990014901010627 0.02036723168931412
-0.5734714307058042 -0.819036387775403 0.01760436491490176
-0.5405778749060637 -0.8411472907301559 0.01570975682059368
0 0 0
0 0 0
0 0 0
0 0 0
0 0 0
-0.442932512315092 0.8964414755695769 0.01426430555196929
-0.4711822061036599 0.8819045127283416 0.0152236355931752
-0.4985001844669528 0.8667193733075734 0.01717830083973099
-0.5247228981420207 0.8510163089259213 0.02090746535423929
-0.5517604759249605 0.8335783324135079 0.0265996416851002
-0.5804458883036308 0.813574450812912 0.03433924483556884
-0.6111035444606115 0.7903147929339389 0.04421522382010262
-0.6438517426461347 0.7630762386251116 0.05629909002183513
-0.6786666335402112 0.7310453540476631 0.07059951022863467
-0.7153678288646603 0.6933094034567047 0.08701115160696259
-0.7535686198973673 0.6488868904182187 0.1052622370527582
-0.7926148546552918 0.5967998340361775 0.1248665298395094
-0.8315342181576769 0.5361902501537953 0.1450891438837205
-0.8690171017363734 0.466480294204505 0.1649406317697113
-0.9034527729886725 0.3875623747771454 0.1832170642603382
-0.933042134343785 0.2999834882601636 0.1986008114546812
-0.9559927345457219 0.205066492251869 0.2098228425393821
-0.9707718312959991 0.1049055712513988 0.2158630878187129
-0.9763599584190252 0.002197567344438355 0.2161397748998671
-0.9724303181298732 -0.1000750600685868 0.2106282477117001
-0.959395115536487 -0.1990333402279472 0.1998668100571878
-0.9383060933876497 -0.292255262629031 0.1848473331623762
-0.9106486029499211 -0.3780039137053476 0.1668297430579939
-0.8780980009321527 -0.4552953491545413 0.1471395453207621
-0.8423030652659079 -0.5238288243307951 0.126999641904502
-0.8047342351429381 -0.583834793924487 0.107423201367589
-0.766604214506207 -0.6358984451625002 0.08916919726696948
-0.7288486426737467 -0.6807992382846458 0.07274649973491962
-0.6921475351128014 -0.719385660182035 0.05844708343219437
-0.6569675638260989 -0.7524902202979586 0.04639060719940904
-0.6236030986901966 -0.7808854108764033 0.0365670669369995
-0.5921907134758877 -0.8052805238737792 0.02886930450306061
-0.5626531087891129 -0.8263699730007491 0.02311161813216742
-0.5344130723013351 -0.8450089231409279 0.01904174271585872
-0.5058268300562022 -0.8624787944268903 0.01641789143681392
-0.4771819475959607 -0.8786707059125523 0.01533556192848102
0 0 0
0 0 0
0 0 0
0 0 0
-0.4132176469546699 0.9105231192924155 0.0141005488990647
-0.4322410816641541 0.9016186873810079 0.0158552794724561
-0.4555446520310034 0.8900078904823658 0.01910562443576751
-0.4802858140507748 0.8767769845719745 0.02424162012860844
-0.5065469276460467 0.8616346386539233 0.03155882703893267
-0.5347519879866827 0.8439999642223223 0.04128403731478809
-0.5652320687655578 0.8231877469785197 0.05361568486399885
-0.598201599344514 0.7983941783798523 0.06871377206081254
-0.633750866121718 0.7686676730824212 0.08665937945789455
-0.6718072877790714 0.7328990564040999 0.1073961880557552
-0.7120680115833108 0.6898456822889453 0.1306601756737265
-0.7539157550859771 0.638204263605882 0.15590494587541
-0.7963368730134934 0.5767472558519081 0.1822366251508855
-0.8378694829937818 0.5045312895013448 0.2083816387828883
-0.8766188948183906 0.4211664523554535 0.2327189993483648
-0.9103789307366901 0.3271003633973711 0.2534078821505514
-0.9368788967263353 0.2238308338919298 0.268621835799116
-0.9541311978883247 0.1139408466879316 0.2768594240263954
-0.9607969972358639 0.0008801151692844034 0.2772514301132381
-0.9564514931380259 -0.1114932137211196 0.2697587896031872
-0.9416510614972636 -0.2194884585141102 0.2551824738499403
-0.9177813500168422 -0.3200957778594851 0.2349810344640458
-0.8867531819090194 -0.4112917799123121 0.210968874838899
-0.8506582629249764 -0.4920925788233736 0.1850011177923616
-0.8114821620129834 -0.5624070273474223 0.1587294437871221
-0.7709227198149576 -0.6227884598100385 0.1334642064395835
-0.7303138218938912 -0.674175103319599 0.1101346975968295
-0.6906273930959174 -0.7176741837357183 0.08931724304302596
-0.652520336132201 -0.7544095643028313 0.07129810812588777
-0.6163980516287673 -0.7854305247683281 0.05614563839166344
-0.582473140410265 -0.8116703087688447 0.04377614148930171
-0.5508045330112631 -0.8339411816376365 0.03400694021910552
-0.5213117107060051 -0.8529517214505202 0.02659814195337094
-0.4938072581650519 -0.8693105877161059 0.0212953954692492
-0.4684308861359971 -0.8833187793968694 0.01790080664854391
-0.4482133300885948 -0.8937768908461198 0.01636093274648448
0 0 0
0 0 0
0 0 0
-0.3365547957530203 0.9415719758105346 0.01315613255816416
-0.3654433876581098 0.9307231265494798 0.01433848398280328
-0.3869702297473259 0.9219362472041406 0.0169586963074149
-0.4088403912184684 0.9123550487652478 0.0213962496922117
-0.4320237388098574 0.9014282648097673 0.02797449743611319
-0.4569548815975529 0.888718278445992 0.03704129776557271
-0.4840505704920505 0.8736707163928189 0.04893387910209196
-0.5136878112668043 0.8555890102107226 0.06397091653677744
-0.5461781948047145 0.8336033392004839 0.08243089465525341
-0.5817367387317777 0.8066354960781813 0.1045061877422629
-0.620426030706818 0.7733764189985469 0.1302323114989743
-0.662070139959459 0.7322955146927416 0.1593938798541348
-0.7061426004761996 0.6817063343688392 0.1914134307568565
-0.7516443857239429 0.6199175609022614 0.2252397280558358
-0.7970045847577444 0.5454936473874539 0.2592689193387182
-0.8400562641289424 0.4576248118768488 0.2913503126004885
-0.8781511583749053 0.3565533926449456 0.3189360770408243
-0.9084589393609743 0.2439317623099871 0.3394107405953397
-0.9284333979233156 0.1229359718436159 0.350568356312191
-0.9363319909069713 -0.002009034266611981 0.3511101915147184
-0.9316045227481023 -0.1258919183072866 0.3409754215485203
-0.9149905631009458 -0.2439699346988968 0.3213579630244585
-0.8882912077759025 -0.3525146099050384 0.2944013926453575
-0.8539270727194904 -0.4492135516168003 0.2627084686882812
-0.8144616382883068 -0.5331772341699131 0.2288542696120138
-0.7722326507667485 -0.6046622883204323 0.195039099087487
-0.7291473574957592 -0.6646807302824181 0.1629222447923618
-0.6866239884005768 -0.7146307897262077 0.1336051381054647
-0.6456289661380415 -0.7560177912943723 0.1077048621460617
-0.6067592854365749 -0.7902778215268675 0.08546422841893997
-0.5703337656819699 -0.8186872043107993 0.06686297346656715
-0.5364722494527852 -0.8423320849017257 0.05171251601091978
-0.5051539141278055 -0.8621143084233879 0.03972961430747476
-0.4762565955397959 -0.8787740256101678 0.03059194530824662
-0.4495931880408789 -0.8929114522731488 0.02398131911914924
-0.4249449170844584 -0.9050067638986956 0.01961057729115881
-0.4015658602450881 -0.9156688236468632 0.01718910372275472
-0.3720525980136168 -0.9280675775699848 0.01635346369114777
0 0 0
0 0 0
-0.3064537242336108 0.9517988961346542 0.01284430691796868
-0.3216366447838942 0.9467471367766189 0.01482321616359453
-0.3394756751160714 0.9404346334618412 0.01841103446249568
-0.3588887859283035 0.9330718531837841 0.02399491885976623
-0.3799350500761166 0.9244595359792672 0.03199881342574817
-0.402899498678653 0.914240206314788 0.04285836116772603
-0.4281686749944946 0.9018981002461632 0.05702107089330958
-0.4561603487001168 0.8867368617278506 0.07493646860394287
-0.4872782761962368 0.8678394960318605 0.09702829831749717
-0.5218670629034775 0.8440187901153269 0.1236408127956006
-0.5601454063457789 0.8137731763761357 0.1549527062055279
-0.6021048900679161 0.7752705372200559 0.1908541209270258
-0.6473707124486027 0.7263938668176795 0.2307880215987121
-0.6950347414399509 0.6648947872329158 0.2735719834010705
-0.7434950432457432 0.5887035570945324 0.3172431914687125
-0.7903691383095994 0.4964189518185527 0.3590053613570552
-0.8325768280536977 0.3879279268538009 0.3953830408034154
-0.8666801045958662 0.2649841929434341 0.4226688701428274
-0.8894855808625706 0.1314644593155697 0.4376442589300583
-0.8987634647665182 -0.006961761654584213 0.4383785673086077
-0.8938059156113842 -0.1437844274200772 0.4247787937851595
-0.8755677270269734 -0.2729189853945628 0.3986180914108401
-0.846333232946585 -0.3897830429384575 0.3630278753041113
-0.8090912307576433 -0.4918088906200906 0.3217070024387361
-0.7668958220280445 -0.5783477166754234 0.278181086294977
-0.7224131327345162 -0.6501857163123826 0.2353248817189872
-0.6777088454500164 -0.708953138761627 0.1951823963344096
-0.6342269281541486 -0.7566198529237452 0.1590050369195954
-0.5928764668657852 -0.7951518459790514 0.1274010866235052
-0.5541566981480313 -0.8263215174356818 0.1005141966115402
-0.5182779022914776 -0.8516308635042236 0.07818496225870764
-0.4852595988512093 -0.8723036832468719 0.0600783315073205
-0.4550035217996412 -0.8893122762162864 0.04577630960365937
-0.4273502589982547 -0.9034144780608397 0.03484303322307827
-0.4021392885342963 -0.91518411463965 0.02687059598091043
-0.3792973994255242 -0.9250247539078787 0.02151017077342191
-0.3589841184600043 -0.933160627043184 0.01848369091562829
-0.3425022473638715 -0.9393536667407341 0.01751854250314299
0 0 0
0 0 0
-0.2642528220233149 0.9643566241611853 0.01366555850142706
-0.2746665309714759 0.9614072828502037 0.01594782890185703
-0.2891217990259957 0.957078908890748 0.02021255759340007
-0.3057174020406376 0.9517452332506654 0.0267933027855691
-0.3241021144949176 0.945331549976301 0.03613972882198829
-0.3444404007740383 0.9375412439589074 0.04875680660793533
-0.3670961163604919 0.927895258106299 0.06519839980312646
-0.392519464923248 0.915709120581276 0.08605391415056396
-0.421191932514389 0.9000400484439975 0.1119163401015244
-0.4535780886248942 0.8796168496853817 0.1433217194599321
-0.490056819739263 0.8527664413379421 0.1806480278189085
-0.530813238664267 0.8173609012626954 0.2239608509221767
-0.575679503157828 0.7708269649440602 0.2727982766790948
-0.6239261989339029 0.7102831034461811 0.3259049113510757
-0.6740341677101411 0.6328860261946564 0.3809635397342289
-0.7235238637820467 0.5364510607745894 0.4344346647445564
-0.768972832286818 0.4203182529073294 0.4816776406246388
-0.8063665935636791 0.2862472481783652 0.5175281921739346
-0.8318353564670221 0.1389107418275294 0.5373581166562083
-0.8426071743729842 -0.01447551182541019 0.5383341056003856
-0.8377821421425501 -0.165503091497754 0.5203170274089878
-0.8185328074101955 -0.3064248657203014 0.4859092969490073
-0.7876410118636006 -0.4316872530371949 0.439622283324769
-0.7486521761734602 -0.5385547595493293 0.3866247406433085
-0.7050575778397006 -0.6268219086587621 0.331644548811224
-0.6597682772264361 -0.6980201632939057 0.2783409276423589
-0.6149190731039037 -0.7545639377612163 0.2291457993577939
-0.5719044404710486 -0.7990932534140534 0.1854057262266713
-0.5315243212572347 -0.8340758442999583 0.1476461373261994
-0.4941522310227735 -0.8616231787733116 0.1158407112192795
-0.4598814384188814 -0.88344499506748 0.08963260170272927
-0.4286359457395432 -0.900877129227827 0.06849543090013917
-0.4002505036038053 -0.9149382357313677 0.05184167398601262
-0.3745343575722965 -0.9263885872437883 0.03909220411238729
-0.3513448133846707 -0.9357742807209318 0.0297206603041228
-0.3307228689626461 -0.9434406395383439 0.02328397759397174
-0.3132401039983462 -0.9494748861984671 0.01944422087697342
-0.3010818005480387 -0.9534297650994187 0.01792853594740589
0 0 0
0 0 0
-0.2144580890977809 0.976615305902061 0.01517472564336527
-0.2235381793366255 0.9745389626106739 0.01744972012891804
-0.2356266386021579 0.9715908712758121 0.02216452197895601
-0.2494051949803973 0.9679470588872083 0.02958952362564745
-0.264721535993812 0.9634884141260545 0.04015699473238389
-0.2818015648066632 0.957927954392638 0.05442345326834308
-0.3010323907607411 0.9508121989818747 0.07304561574881341
-0.3228918789326441 0.9414767635001997 0.09675917686987007
-0.3479144716672528 0.9289739709509426 0.1263442982493969
-0.3766555321985225 0.9119782329375741 0.162561719701493
-0.4096320306025027 0.888678219986999 0.2060403378593832
-0.4472197595929403 0.85667806378953 0.2570937215325451
-0.4894888223881247 0.812954710420652 0.3154446568923936
-0.5359683106261165 0.7539553661759089 0.3798542823493465
-0.5853590508954331 0.6759570218462954 0.4477017826092322
-0.6352709806504929 0.5758127548938149 0.5146556639588801
-0.6821431119227591 0.4521070807811132 0.5746998889541508
-0.7215563290003468 0.3064706747091194 0.6208318529383621
-0.7490646268783975 0.1444326573358545 0.6465612053428742
-0.7613774358486812 -0.02495249525260362 0.6478285059806766
-0.7573728830165638 -0.1909747905724338 0.6244316979758417
-0.7383757837946778 -0.3439223601362655 0.5801022428019867
-0.7075619533933031 -0.4772066942361292 0.5211812094526029
-0.6688895328325909 -0.5880755918276281 0.4547019806022211
-0.6261206574875103 -0.6770091280698639 0.3868223917736533
-0.582254177684982 -0.7465018853899971 0.3220481449683641
-0.5393721156339613 -0.7998919750602058 0.263154990662969
-0.4987429142554493 -0.8405501599517567 0.21149688906709
-0.4610223506093634 -0.8714510813346685 0.1674258196314226
-0.4264539998080893 -0.8950207531872563 0.1306707213257743
-0.3950288809604188 -0.9131414391150251 0.1006225391157438
-0.3665984762396452 -0.9272266893721428 0.07652596771518434
-0.340950915962617 -0.9383149448670312 0.05759806544869427
-0.3178662037262941 -0.9471556361422214 0.04309614196952524
-0.2971718038208302 -0.9542757527528321 0.03235284719911208
-0.2788384163878145 -0.9600179894775746 0.02479107552670123
-0.2632346153089475 -0.9645259566555096 0.01993028451688298
-0.2519997481876779 -0.9675703859348966 0.01742627829289028
0 0 0
-0.1243038651053844 0.9921202437012945 0.01568346766329762
-0.1540146527026316 0.9879368191809836 0.01613468498135529
-0.1681228047735732 0.9855885704437445 0.01870540899640547
-0.1792487233078321 0.9835128603856059 0.02392380924173618
-0.1903003237704028 0.9812003089499153 0.03212071744949274
-0.2021899977331254 0.9783675648210689 0.04377342713073448
-0.2154185441337911 0.9747068025485955 0.05951050250813315
-0.2304368188816936 0.9697852476543634 0.0800964789216725