# OOMMF: rectangular mesh v1.0
# Segment count: 1
# Begin: Segment
# Begin: Header
# Title: 
# Desc: time = 1.7799999999999999e-09
# Desc: stepsize = 2.968027304577539e-14
# Desc: step = 11390
# meshunit: m
# valueunit: (none)
# valuemultiplier: 384000.0000000001
# xmin: 0
# ymin: 0
# zmin: 0
# xmax: 9.357999999999999e-08
# ymax: 9.357999999999999e-08
# zmax: 2.3395e-08
# ValueRangeMaxMag: 1
# ValueRangeMinMag: 0
# meshtype: rectangular
# xbase: 1.16975e-09
# ybase: 1.16975e-09
# zbase: 1.16975e-09
# xstepsize: 2.3395e-09
# ystepsize: 2.3395e-09
# zstepsize: 2.3395e-09
# xnodes: 40
# ynodes: 40
# znodes: 10
# End: Header
# Begin: Data Text
0 0 0
0 0 0
0 0 0
0 0 0
0 0 0
0 0 0
0 0 0
0 0 0
0 0 0
0 0 0
0 0 0
0 0 0
0 0 0
0 0 0
0 0 0
0 0 0
-0.98364942537443 0.179030951093567 0.01953782257791271
-0.9888630457060011 0.147385966099327 0.02067011935182454
-0.9942808847613617 0.1046098944327521 0.02150098102254278
-0.9981049727034277 0.05747594845000831 0.02197677898286333
-0.9997112791110129 0.009075853952052767 0.02224830989677791
-0.9990129400282467 -0.03827826950668931 0.02253707478116538
-0.9964147448509898 -0.0813873340171539 0.02310320551605102
-0.9932761142509771 -0.1132334891653421 0.02409850181903794
0 0 0
0 0 0
0 0 0
0 0 0
0 0 0
0 0 0
0 0 0
0 0 0
0 0 0
0 0 0
0 0 0
0 0 0
0 0 0
0 0 0
0 0 0
0 0 0
0 0 0
0 0 0
0 0 0
0 0 0
0 0 0
0 0 0
0 0 0
0 0 0
0 0 0
0 0 0
0 0 0
0 0 0
-0.920338808883592 0.3905981754637128 0.020237148691188
-0.9322887913660405 0.3610704247420937 0.02158142418403508
-0.9472710257727306 0.3196579038341081 0.02228066982526901
-0.9624586972337004 0.2705232239380785 0.02214591224935325
-0.9773894637146956 0.2103318652935306 0.02168738485026215
-0.9867526239447381 0.1606735282243178 0.02243382415290084
-0.9935400928857622 0.1110773606590751 0.02323582960783453
-0.997899043941726 0.06026002277965856 0.02379554064912083
-0.9996701283584399 0.008807540990978262 0.02412595468602432
-0.9988045462805984 -0.04238988637915727 0.02434288113534397
-0.9953891805860828 -0.09272153184383045 0.0245580272965828
-0.9893446415111038 -0.1434872849365422 0.02466940158991833
-0.9784015776662307 -0.2053328893724306 0.02384863438857329
-0.9663348064550079 -0.2563085863644746 0.02242655545121777
-0.9538606148086968 -0.2994674830987698 0.0216599649875669
-0.9436549914120875 -0.3301978777733994 0.02201405680459108
0 0 0
0 0 0
0 0 0
0 0 0
0 0 0
0 0 0
0 0 0
0 0 0
0 0 0
0 0 0
0 0 0
0 0 0
0 0 0
0 0 0
0 0 0
0 0 0
0 0 0
0 0 0
0 0 0
0 0 0
0 0 0
0 0 0
-0.868650076761953 0.4950865066504305 0.01834107614416608
-0.8843952846989418 0.4663288576664714 0.01955446009894412
-0.9072576250337764 0.4200631985282508 0.02074876045180913
-0.9256348719863472 0.3777571579349434 0.02235203327960699
-0.9429175302625719 0.3321846472044798 0.02366202200080937
-0.9590251178640958 0.2822555465363898 0.02454851839114809
-0.9733960877558607 0.2277262120564746 0.02531459428854665
-0.984427543918876 0.1738056855513248 0.02634377429076901
-0.9924554676589249 0.1195254693660244 0.02730946514920899
-0.9975230666060497 0.06452972711271822 0.02799367620767563
-0.999557462426464 0.009038283409533217 0.02834058469009074
-0.998512910397262 -0.04654804177507914 0.02837688455229724
-0.9943869148699587 -0.1019978354525912 0.02812659059308972
-0.9871117448599557 -0.1576502572377432 0.02750999004737407
-0.9763893481148803 -0.2144068938923737 0.02633485787360298
-0.9634330076121499 -0.2667926486109181 0.02487011239576392
-0.9488307072698958 -0.3148908063963526 0.02375013660516115
-0.9327694494078071 -0.3597228764174552 0.02325094478528426
-0.9124071403405943 -0.4086373880507401 0.02299337605849567
-0.8981858971472697 -0.4390054801873256 0.02315777474736059
0 0 0
0 0 0
0 0 0
0 0 0
0 0 0
0 0 0
0 0 0
0 0 0
0 0 0
0 0 0
0 0 0
0 0 0
0 0 0
0 0 0
0 0 0
0 0 0
0 0 0
0 0 0
0 0 0
-0.8297947433895515 0.5577752422218897 0.01809593897481825
-0.8517969483439863 0.5235244772703391 0.0190808933409846
-0.8733453487810722 0.4866555814703373 0.0208385888734027
-0.8958767364341982 0.4437124079429888 0.0228948062547932
-0.9168068990079113 0.3985365986357066 0.0251731896941714
-0.9362296529124349 0.350321000414572 0.02737213320139476
-0.953906610421804 0.2986648935355141 0.0293506382043769
-0.9693479278049622 0.2437095801356903 0.03114860206029948
-0.9818151620153618 0.1869838255323186 0.03280299721134812
-0.9910685305538454 0.1289052011483803 0.03415577349053634
-0.9969463672387954 0.06978036143422213 0.0350519900644423
-0.9993225374411949 0.01001693645298408 0.03541365762228256
-0.9981318489073124 -0.04991866641481588 0.03522696325594525
-0.9933781417593971 -0.109587071494904 0.03450422055078892
-0.9851217780191379 -0.1686097363981199 0.03325416160675954
-0.9735164961515504 -0.2264334389317473 0.03152030225665231
-0.9591591045289726 -0.2813209929482247 0.02953491367524516
-0.9425318481844557 -0.3329697711684813 0.02765586097019965
-0.9239344555481831 -0.3816594861065369 0.02609901369355343
-0.9034147522037506 -0.428045052288993 0.02488410560073957
-0.883449533710249 -0.4679031755302756 0.02415656672268034
-0.8630238372682393 -0.5045973659472609 0.02390302461800782
0 0 0
0 0 0
0 0 0
0 0 0
0 0 0
0 0 0
0 0 0
0 0 0
0 0 0
0 0 0
0 0 0
0 0 0
0 0 0
0 0 0
0 0 0
0 0 0
-0.7537937184903256 0.6568611230918739 0.01812442923265087
-0.7748436325476064 0.6318675208367729 0.01899424154894717
-0.8068831292478067 0.5903866642004694 0.01957555796163661
-0.83349213182332 0.552119434829509 0.02133063224943209
-0.858473348935439 0.5122999407671461 0.02392237148675546
-0.8828662682021861 0.4688473132722742 0.02700646789410337
-0.906051120255962 0.4220781377968215 0.03035478672109857
-0.9276822395018428 0.3718443535948229 0.03372594272208399
-0.9473477067162652 0.3180694456757633 0.03693440546354208
-0.9645282782864314 0.2609529496608527 0.03985923292177561
-0.9786403228274747 0.2011642838955459 0.04237982327627086
-0.9892592319030262 0.1392876651240296 0.04432965642693962
-0.9960734751265683 0.07590983358029915 0.04555578245505906
-0.9988749416762912 0.01166920664321992 0.04596390439794436
-0.9975691546350243 -0.05275458698173161 0.04552730250244792
-0.9921836468283133 -0.1166669548794642 0.04427677275526986
-0.9828727884797117 -0.1793666175627534 0.04229300379746578
-0.9699358593342677 -0.2400971423943093 0.03972141729069897
-0.9538628044428623 -0.2979789978789213 0.03680036852357675
-0.9351563860409992 -0.3526175047552471 0.03381462681918391
-0.9142724748394122 -0.4039126641590742 0.0309903449954174
-0.8916501221879765 -0.4518296429697427 0.02846108458933119
-0.8680072864417323 -0.4958541535053159 0.02630606651680433
-0.8425773192417023 -0.5380212851729372 0.02442453275555408
-0.812002295256308 -0.5832239614643532 0.02240721473797739
-0.7917515610508403 -0.610463868153079 0.02152513073450443
0 0 0
0 0 0
0 0 0
0 0 0
0 0 0
0 0 0
0 0 0
0 0 0
0 0 0
0 0 0
0 0 0
0 0 0
0 0 0
-0.7056620666884328 0.7083559553354891 0.01651932740023468
-0.7312913855650465 0.6818307631911154 0.01788070928613179
-0.7572624410543454 0.6528131785580849 0.01971165313472604
-0.785963170454265 0.6178836576024296 0.02194721753032488
-0.8138422743489767 0.5805467646062489 0.02502412011842084
-0.8410241879631069 0.540224892317516 0.02890295800648332
-0.8675848479624093 0.4961684098815014 0.03336825769657559
-0.8931258772160552 0.4481838072822238 0.03817646312928939
-0.9171733368968545 0.3961543693172603 0.04306722368962896
-0.9391814715488006 0.3400802806442765 0.04778667404558877
-0.9585363973696203 0.2801679848219773 0.05209486729478656
-0.9746010188192852 0.2168969998689252 0.05575433224665329
-0.9868149941417955 0.1508980481091149 0.05853158475376159
-0.9947338371713055 0.08292621086572803 0.06023152611301753
-0.9980581950878049 0.01383812520988131 0.06073175041729404
-0.9966572933485928 -0.05544613181692627 0.0599997173459726
-0.990581589484099 -0.1239885633164463 0.0580943262451603
-0.9800627698148074 -0.1908778299416537 0.05515996065709734
-0.965502187639139 -0.255267645442975 0.05141940153323674
-0.947442419074196 -0.3164314250353089 0.04715947189016181
-0.9264784471418471 -0.3739188585288071 0.04268927521222335
-0.9032031690299825 -0.4275025409897672 0.03828332406530024
-0.8781919881361818 -0.4770876256007959 0.03415010207912668
-0.8519874734169913 -0.5226772683614271 0.03042726209779284
-0.8247244449418898 -0.564881578931465 0.02717336378122209
-0.7965005861844534 -0.6041422791506941 0.02447289828415147
-0.7708302266862471 -0.6366316034080547 0.02282461760726821
-0.7457328788119985 -0.66587006152606 0.02235027118515484
0 0 0
0 0 0
0 0 0
0 0 0
0 0 0
0 0 0
0 0 0
0 0 0
0 0 0
0 0 0
0 0 0
-0.6512277077526969 0.7587276884904331 0.01532212038628208
-0.678511026092721 0.7344020298541262 0.01662666583357601
-0.7056178422395757 0.7083423229675802 0.0188312029901771
-0.7333920926408574 0.6794547009560746 0.02184829056367668
-0.7623393193043573 0.6466684778726235 0.02566402089449511
-0.7915393122123709 0.6103624451915068 0.03038425122017942
-0.8206907486387051 0.5702392790979522 0.0359702609483052
-0.8495288280383462 0.5258476525715293 0.04224945700012678
-0.8775992787302593 0.4768872974958291 0.0489694951909107
-0.9043232105378738 0.4231822041929705 0.05582430417704123
-0.9290226443655651 0.3647108138814046 0.06247358236867615
-0.9509456051690702 0.3016657502774933 0.06855823159291435
-0.9693166369544377 0.2345019980089185 0.07371614648883747
-0.9834157642122259 0.163921504296373 0.0776091175577809
-0.9926495342712826 0.09084477366788633 0.07996329913301577
-0.9966115456414157 0.01636128856747759 0.08060853137627465
-0.9951258299917406 -0.05834173110020066 0.07950361561263077
-0.9882660646433573 -0.1320634774509719 0.07674257878054271
-0.9763471229686305 -0.2036755729385814 0.07254347978294326
-0.9598898299409249 -0.272199444345337 0.06722333578506499
-0.9395623046733147 -0.3368708543783029 0.06116128765322965
-0.9161015379972339 -0.3971904969310306 0.05475108425212372
-0.8902504471701426 -0.4528973742785248 0.04835400381538895
-0.862716469454788 -0.5039182930492698 0.04226875041654139
-0.8341307664786036 -0.550342840717462 0.03672359030447993
-0.8049724545966237 -0.5924545072952492 0.03189050213197608
-0.7757596804944137 -0.6304095621963068 0.0279410452679511
-0.7475843146221491 -0.6636923347450683 0.02510333307693309
-0.7202134956143721 -0.6933562479555303 0.02344427768039976
-0.6931520710935761 -0.7204296103951205 0.02283380836873994
0 0 0
0 0 0
0 0 0
0 0 0
0 0 0
0 0 0
0 0 0
0 0 0
0 0 0
-0.5961857199735401 0.8027268870431943 0.01386117302301621
-0.6220718497292226 0.782810133694663 0.01532672043871833
-0.6487046335055048 0.7608357361736218 0.01764315815356396
-0.6763635322820073 0.7362686847647207 0.02099514310106025
-0.7051418185932152 0.7086101156512992 0.02543068358706237
-0.7350469249222021 0.6773084499278607 0.03097227500092234
-0.7657212050146206 0.6420705725809466 0.03763530279581248
-0.7968532035031848 0.6024685667447899 0.04534973154485497
-0.8280740977836194 0.5580181842284191 0.05393509664645446
-0.8588619132510621 0.5083047080849853 0.06310735064445631
-0.8885385591250123 0.4530389409548141 0.07249101272976713
-0.9162862368443919 0.3921163432210402 0.08163519797551845
-0.9411808784858379 0.3256868385261894 0.09003686569090426
-0.9622534094184064 0.2542149757262298 0.09717572834388694
-0.9785794187140304 0.1785018847559304 0.1025641185205167
-0.9893794471459063 0.099665208094944 0.1058071635601847
-0.9941126475333932 0.0190722948648267 0.1066596998998977
-0.9925452938363533 -0.06176783914557878 0.1050646169297388
-0.984779181346055 -0.1413366561148957 0.1011628075216032
-0.9712337274078786 -0.2182387476259978 0.09527274416135004
-0.9525864157125677 -0.2913113832035082 0.0878453107225501
-0.9296854262402051 -0.3596944037357246 0.07940367849016369
-0.9034534266520803 -0.4228527828144338 0.07047999671327246
-0.8748059098125148 -0.4805463531772211 0.06156153511057952
-0.844592237224826 -0.5327747517419794 0.05305673120194178
-0.8135544753077668 -0.5797227277755614 0.04528437486778485
-0.7823080307230086 -0.6217017963113834 0.0384840425304704
-0.7514137200291667 -0.659013514221094 0.03284218972438394
-0.7214696061006045 -0.6918590708682273 0.02850672780926003
-0.6927357361821805 -0.7207389813617174 0.02554448202266241
-0.6654103991984931 -0.7460932674735674 0.02395489238376019
-0.6395279403283914 -0.7684014396327334 0.02373270127204116
0 0 0
0 0 0
0 0 0
0 0 0
0 0 0
0 0 0
0 0 0
0 0 0
-0.5692171788003393 0.8220617632857704 0.01436177920985101
-0.589685327943801 0.807466911250087 0.0163829559010492
-0.6153061389685658 0.7880418685221151 0.01970707496736623
-0.6431600720404331 0.7653437285123297 0.02437414531403653
-0.6726359058680286 0.7393468972915499 0.03044837602326611
-0.7035537656674421 0.7096270507363817 0.03796771889837871
-0.7356978996042115 0.6756821909599461 0.04692736235415332
-0.7687961283699012 0.6369271761486278 0.05723884421252134
-0.8024584490346685 0.5927401693511197 0.06869882976063137
-0.8361169721236487 0.5425419126471044 0.08097334097098341
-0.8690027400175483 0.4858749233227429 0.09359378573447959
-0.9001503603466479 0.4224930971134008 0.1059665591558286
-0.9284332266679245 0.3524608434331087 0.1174014372374017
-0.9526378766436857 0.2762432221573271 0.1271642960738075
-0.9715782953753106 0.1947580327921428 0.1345545414266642
-0.9842350813069427 0.109365737998627 0.1389979858729296
-0.9898926960778068 0.02178353050076574 0.1401353918563487
-0.9882423483950051 -0.06607000497272514 0.1378833393910562
-0.9794236453018761 -0.1522709530459319 0.1324495371153408
-0.9639944899074415 -0.2350842080251621 0.1242981840787457
-0.9428394521832354 -0.3131142519227056 0.1140755567582318
-0.9170428440007988 -0.3853866422295004 0.1025161365736988
-0.8877580496486557 -0.4513560621099506 0.09035126164372563
-0.8560993157222029 -0.5108549739337553 0.0782378247851875
-0.8230673586010501 -0.5640116348377354 0.06671580752081892
-0.7895085636596053 -0.6111614968816106 0.05619477411268464
-0.7561087313819856 -0.6527588122743695 0.04696295695628951
-0.7234318293188562 -0.6892815431183963 0.03920896128049648
-0.6919734959813763 -0.7211663499353109 0.03304204261682794
-0.6621916533273478 -0.7487921764775594 0.02850422266249168
-0.6349815850885171 -0.7721027521743105 0.02560716078227442
-0.6135601862742359 -0.7892716197080678 0.02437638493558163
0 0 0
0 0 0
0 0 0
0 0 0
0 0 0
0 0 0
0 0 0
-0.491897224539787 0.8705220426157037 0.01511601171727461
-0.5245856946248447 0.8512118460378433 0.01575570245389652
-0.5506596224911126 0.8345281649469797 0.01834998823355627
-0.5773319730874006 0.816192613736855 0.02274665101524512
-0.6055770405652279 0.7952618499203978 0.02889702409325759
-0.6355678050496656 0.7711651557776575 0.0368492564208697
-0.6673285064346747 0.743300648513063 0.04665630096488467
-0.700776284621732 0.7109928879417488 0.05832419916306642
-0.7357104008372706 0.6734833877561347 0.07176581718605357
-0.7717653743886839 0.629961192737458 0.08675887585425236
-0.8083556821578332 0.5796294044773096 0.1029118291957899
-0.8446364305257278 0.5217998222212605 0.1196421571128573
-0.8794919077149085 0.4560157558751026 0.1361749413719318
-0.9115658927028336 0.3821953370771401 0.1515729117533104
-0.9393483233461593 0.3007708850915813 0.1648077732025584
-0.961322924960243 0.2127842249675252 0.1748745480361631
-0.9761598044133371 0.1198942842515584 0.1809347861841991
-0.9829141896174918 0.02426786819457994 0.1824575743066852
-0.981179089292075 -0.07164163303307426 0.1793183514097992
-0.9711464329139771 -0.1653820600652192 0.1718236888413292
-0.9535591895293358 -0.2547848915473648 0.1606534503313055
-0.9295730595139748 -0.3381735745456995 0.1467397713805363
-0.900572369716373 -0.4144598827771172 0.1311198401151184
-0.8679896135001357 -0.4831302860583861 0.1148005119719717
-0.8331642411666761 -0.5441539764297711 0.09866000799120468
-0.7972545341820936 -0.5978548573690194 0.08339530710035296
-0.7611996871169929 -0.6447816645024953 0.06951000974236138
-0.7257230184279887 -0.6855941345853745 0.05733047310026741
-0.6913652457297436 -0.720972763703408 0.04703584797705588
-0.6585233449732866 -0.7515651487127866 0.03868890494082709
-0.6274653864328169 -0.7779759701762794 0.03225800144138161
-0.5982992023292824 -0.8007965734482879 0.0276208697478027
-0.5703461379872711 -0.8210389493179033 0.02450156292888091
-0.5368292811355554 -0.8433944342425269 0.0223640605483496
0 0 0
0 0 0
0 0 0
0 0 0
0 0 0
-0.4275139094102171 0.9039017405515002 0.01391045250021287
-0.4557812162717507 0.8899657587946159 0.01498102356205122
-0.4829145174580074 0.8755023259012258 0.01700723874834873
-0.5087762694304021 0.8606478057330263 0.02078610476759
-0.5353364396787583 0.8442215418373727 0.02654966383591759
-0.5634803869523775 0.8254121306745175 0.0344190071813801
-0.5935822396468573 0.8035410805611616 0.04451804832224024
-0.6258147501451062 0.7778893636112674 0.05695644372040127
-0.660217417997366 0.7476360952707686 0.07178600156833674
-0.6966839026388578 0.7118424205152575 0.08894890757546935
-0.734910752338033 0.6694731202225044 0.1082216586339807
-0.7743302403712249 0.6194597855168438 0.1291597962760337
-0.8140480975834464 0.5608109125233665 0.1510523591854172
-0.8528072101157165 0.4927727586768789 0.1729013322118321
-0.8890030882434814 0.4150324884656735 0.1934464851361816
-0.920777840025897 0.3279315860793725 0.2112558736904381
-0.9462069336094987 0.232630514733649 0.2248899339767498
-0.9635630111816361 0.1311513933290125 0.233121503749518
-0.9716018816046429 0.02624236271247719 0.2351619060595999
-0.969788225107155 -0.07893780865371332 0.2308237873540407
-0.9583856600422431 -0.1812436883206651 0.2205621274591699
-0.9383819125674697 -0.2779556536684651 0.205377800066009
-0.9112815364324028 -0.3670681536921669 0.1866197521765109
-0.8788403335790164 -0.4473986319575599 0.1657532268078863
-0.8428184671694616 -0.5185320193109634 0.1441581643453234
-0.8048014676799007 -0.5806606665646993 0.1229950727668241
-0.7661026704264553 -0.634387843085642 0.1031443789578488
-0.7277353843283499 -0.6805449151089996 0.08520462966149725
-0.6904330030783423 -0.720047412922623 0.06952691136286052
-0.6546938964414474 -0.7537971941083572 0.05626448361695433
-0.6208262169437641 -0.7826312537427688 0.04542168006927844
-0.588965430497031 -0.8073157214542904 0.03689237823975432
-0.5590188601792143 -0.8285944000270545 0.03048334311943278
-0.5303748597598805 -0.8473666227602636 0.02592903327453369
-0.5013304810425917 -0.8649509875062461 0.02296819517447962
-0.472172382899753 -0.881239590802166 0.02168004680806488
0 0 0
0 0 0
0 0 0
0 0 0
-0.3977657107885233 0.9173878953229311 0.01348661691691236
-0.4165733405734278 0.9089743167293184 0.01524281633961289
-0.4394813711430408 0.8980614285940723 0.01848769563267008
-0.4636600467821448 0.8856982973355401 0.02361963409759525
-0.4892265261865211 0.8716070947746347 0.03095930254365919
-0.5166461943455746 0.8552280053743778 0.04076479721031053
-0.5462958512441536 0.8358965130791468 0.05327159032307326
-0.5784438850657083 0.8128253680380632 0.06868473559588295
-0.6132474594920677 0.7850695147960698 0.08714017652258739
-0.6507172776384887 0.7515071822629422 0.1086461209154125
-0.6906507427720883 0.7108516453914731 0.133009359642838
-0.7325432787127729 0.6617095925596753 0.1597521828559748
-0.7754943080544381 0.6027042430389132 0.1880323738031794
-0.8181340114219579 0.5326780075034723 0.2165891956602319
-0.8586091918997169 0.4509724770768203 0.2437500369323286
-0.8946734204624905 0.3577481760375421 0.2675363774512905
-0.9239141479581476 0.254259074426777 0.2858932847662016
-0.9441071656700071 0.1429618448129125 0.2970245287147754
-0.9536236985456451 0.02735476222095693 0.2997558315628891
-0.9517622794803304 -0.08847189318844757 0.2938048458995479
-0.9388814404274697 -0.2004633455010013 0.2798501169043631
-0.9162845274414163 -0.3052052226776659 0.2593693058589165
-0.8859120736105414 -0.4003203337471549 0.2343148058054309
-0.8499635934419656 -0.4845790269526986 0.2067487762014479
-0.810566777117162 -0.557765964028302 0.1785458742325783
-0.7695594821143821 -0.6204127071021052 0.1512159923886401
-0.7283918300302115 -0.6735046761306912 0.1258443211882516
-0.6881202780235536 -0.7182323806954457 0.1031151312530772
-0.6494556667707243 -0.7558141969918224 0.08338007270925178
-0.6128320007269951 -0.7873898356116353 0.06673968579810639
-0.5784711597227854 -0.8139714246948672 0.05311908460415624
-0.546426965071244 -0.8364363675458754 0.0423293620279161
-0.5166028857310315 -0.8555451882927548 0.03411582101437546
-0.4887883414183458 -0.8719463329263074 0.02820549219331768
-0.4631063235496518 -0.8859672657577914 0.02438313134091164
-0.4426313251431884 -0.8964189955426175 0.02259412384557928
0 0 0
0 0 0
0 0 0
-0.3211304670231581 0.9469582031476934 0.01205755534011063
-0.3499005648533114 0.9366919964469718 0.01333036036719225
-0.3710575444152472 0.9284733489352769 0.0159229095782829
-0.3923507722052226 0.9195916961634213 0.02029738646345488
-0.4147751708363241 0.9095289568631665 0.02680735505599158
-0.4387918249159941 0.8978743020500354 0.03582557892139329
-0.4648486890892458 0.8841032637545957 0.04771912897865097
-0.4933605001684921 0.8675516493640345 0.06284546570149854
-0.5246874501007484 0.8473813997135766 0.08153430643743512
-0.5591098592316481 0.8225392789627571 0.1040447013230065
-0.596778116527876 0.7917238964566902 0.1304957907860509
-0.6376304008287274 0.7533792116851495 0.1607707539935638
-0.681279459455879 0.7057392997255746 0.1943973738154942
-0.7268802107958546 0.6469563983813446 0.2304182669555792
-0.7730065215162811 0.5753445659802164 0.2672817765773324
-0.8175881406312953 0.4897525893967947 0.3028069244224701
-0.8579775430174464 0.3900297622491463 0.3342922676904446
-0.8912101610383812 0.2774682991905479 0.3588255729546696
-0.9144661444041943 0.1550312591636309 0.3737873451852885
-0.9256386297189437 0.02717561659779594 0.3774316004716157
-0.9238152918496416 -0.100786087853948 0.3693338206011704
-0.9094727600159127 -0.2236159435477802 0.3505070735096132
-0.8843032637197081 -0.3370377273608418 0.3231304815552237
-0.8507664171769059 -0.4382763615035163 0.2900178172995747
-0.8115623233451421 -0.5261431979920765 0.2540471029815248
-0.7692019010182303 -0.6007677682027069 0.2177303932818726
-0.7257553145168988 -0.6631690251004324 0.182991987796786
-0.6827690666740555 -0.714833292424237 0.151128308516188
-0.6412972685312827 -0.7573888547962753 0.1228817968809965
-0.6019885930042261 -0.7923982535145421 0.09856338934865889
-0.5651859192591361 -0.8212507795168934 0.07817949740245175
-0.5310137345770355 -0.8451254986347001 0.06154108585326327
-0.4994428513850603 -0.8649966800580837 0.04834854381316397
-0.4703341793604776 -0.8816588344298364 0.03825518784593683
-0.4434782888231835 -0.895751762955232 0.03091579701470654
-0.4186300606636652 -0.907784116437157 0.02601673025470131
-0.3949986078415519 -0.9183876952116523 0.02324093558927403
-0.3649959343794329 -0.9307450907396808 0.02217079047908763
0 0 0
0 0 0
-0.2911553227506046 0.9566065500944467 0.01151027151685712
-0.3060715648568841 0.9519135674633865 0.01344459985223266
-0.323395180061828 0.9461124743221941 0.01693350066327481
-0.3420677807617683 0.9394086312818501 0.02238429891418507
-0.3621707449817785 0.9316211285188424 0.03023945066666282
-0.384008043962458 0.9224210114069646 0.04095485181366034
-0.4079864020065572 0.9113295374613396 0.05500518092183807
-0.4345496343472172 0.8976944402192417 0.07287871629057192
-0.4641391780163851 0.8806471982121282 0.09505438291526853
-0.4971563713107225 0.8590477122374724 0.1219531490561822
-0.5339042859730464 0.8314291762647664 0.1538562259881064
-0.5744946673462208 0.7959633103514485 0.190783347714412
-0.6187130305273001 0.7504783724997597 0.2323282123760176
-0.6658465172715101 0.6925775667735953 0.2774612215055763
-0.7145009610088843 0.6199150871299717 0.324335723388621
-0.7624680239541483 0.5306725378086296 0.3701745129843552
-0.8067408710930306 0.4242143940857944 0.4113530293537172
-0.8437867026422294 0.3017750601704647 0.4437970408906149
-0.8701212775325281 0.1668849937015748 0.4637222889428391
-0.8830766541116237 0.02520329511260697 0.4685514026000627
-0.8814825540798011 -0.1163794086763403 0.4576508932462552
-0.8659467529405465 -0.2511132235431288 0.4325255715371087
-0.838603900467297 -0.3736813467217314 0.3963656761543165
-0.802482648315625 -0.4809179428725933 0.353184840240254
-0.7607964610611275 -0.5718173704005534 0.3069424046055876
-0.7164092063643718 -0.6470460638906879 0.2609391504545427
-0.6715653449679596 -0.7082843761191109 0.2175620141100621
-0.6278428545235988 -0.7576429744860221 0.1782988312794886
-0.5862372449591605 -0.7972574403142391 0.1438974165378954
-0.5472950227041636 -0.8290612211988816 0.1145672275455234
-0.5112457930789458 -0.8546917517752843 0.09016511801342565
-0.4781102544017716 -0.8754784482823864 0.0703425278827657
-0.4477802636730012 -0.8924718267176014 0.05465230077759618
-0.4200801253779444 -0.9064854978360302 0.04262312137109153
-0.3948295274844381 -0.9181320387649525 0.03381129426281348
-0.3719336088169907 -0.9278418768592682 0.02783598711452228
-0.3515294779526577 -0.9358589305794028 0.02439442938680862
-0.3349142039517761 -0.9419629214456513 0.0232019527825022
0 0 0
0 0 0
-0.2491492485125386 0.9683908426494963 0.01199282444777473
-0.2591837461589475 0.9657240616967375 0.01417118156575506
-0.2729891193694724 0.9618435949856351 0.01827127502363134
-0.2886991737723222 0.957102701141974 0.02464156102838045
-0.3059776552320199 0.9514405223926207 0.03374324892436455
-0.3249970590349733 0.9445909540377702 0.04609599948621027
-0.3461282114033777 0.9361180121798524 0.06227622775297472
-0.3698323040130632 0.9253919008741679 0.0829089663720583
-0.3966121439149939 0.911534779557594 0.1086423165991969
-0.4269725596538016 0.8933464926903025 0.1400945298739948
-0.4613628248010904 0.8692210971390935 0.1777611548676158
-0.5000815641217334 0.8370742821298307 0.2218672472952885
-0.5431294187334704 0.794319610490552 0.2721521465952089
-0.5900045734846766 0.7379572877737076 0.3275876137597967
-0.6394599045032204 0.6648641962225108 0.3860655787740299
-0.6892856648024893 0.5723732102480907 0.4441555813992263
-0.7362426191954206 0.4591578200927431 0.4971125646450175
-0.7763097361593374 0.3262539644313996 0.5393528939729668
-0.8053526033204713 0.1777937406033916 0.5655055880600943
-0.8201090036482489 0.0208961216240724 0.5718256502083027
-0.8191124299604355 -0.1355706755495576 0.5573826504434335
-0.8030845953401714 -0.2829854386598067 0.524379990306485
-0.774593122155285 -0.4148271277202874 0.4774138133915522
-0.7372020926903708 -0.5275996427863346 0.4221038870523099
-0.6945651973516306 -0.6206804030180952 0.3637788118310148
-0.649798800626107 -0.6954998327735292 0.3066618680515485
-0.6052192122469271 -0.7545788286640223 0.2536148585143242
-0.5623523294462096 -0.8007597105959197 0.2062613474521106
-0.5220795912834949 -0.8367298910494682 0.1652754966400157
-0.484817298401096 -0.8647962590199575 0.130689010846929
-0.450675482906444 -0.886824485018139 0.1021466684691965
-0.4195790166825093 -0.9042664325434313 0.07909277928429635
-0.3913544838846397 -0.9182228991550061 0.06089643183933204
-0.3657981259299893 -0.9295101841502054 0.04693131819114411
-0.3427520294425933 -0.9387116485467275 0.03662631834716699
-0.3222420143899321 -0.946197554794429 0.02950036377677118
-0.3048285242155412 -0.9520740845143285 0.02518945058507487
-0.2926986699356026 -0.955917937781097 0.02341761828759093
0 0 0
0 0 0
-0.1996309954720203 0.9797834643012266 0.0131083457665975
-0.2082358810336812 0.9779597864982911 0.01524709291449092
-0.2195702692557246 0.975396958675944 0.01974005736281742
-0.2323519850279324 0.9722604468564224 0.02687337961866686
-0.2464351518522586 0.968449403035881 0.03708732520686266
-0.2620425228024706 0.9637105830451314 0.05094730974378325
-0.2795544621511938 0.9576382153337005 0.06912561915701994
-0.2994429928205057 0.9496307948196215 0.09238640365850299
-0.3222435782043577 0.938819731005974 0.1215589938257223
-0.3485283127895557 0.9239733221634828 0.1574843329167759
-0.3788594246356027 0.9033817418578312 0.2009153175909955
-0.4137036322993138 0.8747401155897365 0.2523470522918941
-0.4532875295897363 0.8350699644499676 0.3117508139395364
-0.4973790087826983 0.7807568031798683 0.3781969538622602
-0.5450006258942811 0.7078277861855323 0.4493930828111729
-0.5941310898931671 0.6126178957552374 0.5212557547143074
-0.6415342342520147 0.492906840514975 0.5877726370427818
-0.6829331060097444 0.3493623643887515 0.6415203122774713
-0.7137157081868486 0.1867095882955486 0.6750921548395089
-0.7301057408474784 0.01375365961558154 0.6831957582045814
-0.7303318740453147 -0.1582794595566377 0.664502043966696
-0.7151504979429101 -0.3185708912272541 0.6221513903823412
-0.6874235206010969 -0.4592922219767114 0.5625829344692995
-0.6510644756617541 -0.5767440772809102 0.4934382614397436
-0.6099620585058168 -0.6709259559024316 0.4216688853588257
-0.5672981052554562 -0.744256908281628 0.3524975379327369
-0.525320152096764 -0.8002441038253614 0.2892198335069305
-0.4854169153440756 -0.8425237349421779 0.2335041206422811
-0.4483195724522773 -0.8743381283351837 0.1858558535412184
-0.4143131836496426 -0.8983393982607906 0.1460510574646336
-0.3834080099649136 -0.9165826272657253 0.1134662297311606
-0.3554613707446391 -0.9306050472442405 0.08730097337307753
-0.3302594248032378 -0.9415294740857799 0.0667155286000851
-0.3075755322265951 -0.9501607890154918 0.05090939984898935
-0.2872273888157391 -0.9570615166046222 0.03916223370228187
-0.2691736549466318 -0.9625973577964796 0.03085239449227839
-0.2537698488927148 -0.9669292890241472 0.02546789783679381
-0.2426447226751384 -0.9698505322286339 0.02266017859020554
0 0 0
-0.1102408899300404 0.9938179863288045 0.01314367668472005
-0.1395671287789816 0.9901185601922651 0.0136474659621092
-0.1531014454368345 0.9880798535818962 0.01606705793635835
-0.1634086513619196 0.9863347298302696 0.02100984033083856
-0.1733974729172605 0.9844298501012817 0.02883030723865863
-0.1839759901418189 0.9821160487117505 0.0400112723386216
-0.1956324792704287 0.979123464377089 0.0551831003180529
-0.2087989843147657 0.9750695161070069 0.07511606291579237
-0.223943233568562 0.9693847570720221 0.1007105798576944