# OOMMF: rectangular mesh v1.0
# Segment count: 1
# Begin: Segment
# Begin: Header
# Title: 
# Desc: time = 1.4199999999999999e-09
# Desc: stepsize = 2.9974575659283484e-14
# Desc: step = 9086
# meshunit: m
# valueunit: (none)
# valuemultiplier: 384000.0000000001
# xmin: 0
# ymin: 0
# zmin: 0
# xmax: 9.357999999999999e-08
# ymax: 9.357999999999999e-08
# zmax: 2.3395e-08
# ValueRangeMaxMag: 1
# ValueRangeMinMag: 0
# meshtype: rectangular
# xbase: 1.16975e-09
# ybase: 1.16975e-09
# zbase: 1.16975e-09
# xstepsize: 2.3395e-09
# ystepsize: 2.3395e-09
# zstepsize: 2.3395e-09
# xnodes: 40
# ynodes: 40
# znodes: 10
# End: Header
# Begin: Data Text
0 0 0
0 0 0
0 0 0
0 0 0
0 0 0
0 0 0
0 0 0
0 0 0
0 0 0
0 0 0
0 0 0
0 0 0
0 0 0
0 0 0
0 0 0
0 0 0
-0.9888973447789247 0.1467876402780608 0.02313936366433587
-0.9931236759935778 0.1146260800866436 0.02379550262072696
-0.9971788726184287 0.07113352465434376 0.023964925906181
-0.9994481206010366 0.02328471749024302 0.0236912675569428
-0.9994000432733319 -0.0257374436727501 0.02317622701074531
-0.9970309328650947 -0.07358467070435713 0.02268513053719829
-0.9928690887697021 -0.1170599186285906 0.02253770210753759
-0.9885427613329966 -0.1491774592110858 0.02300640518330495
0 0 0
0 0 0
0 0 0
0 0 0
0 0 0
0 0 0
0 0 0
0 0 0
0 0 0
0 0 0
0 0 0
0 0 0
0 0 0
0 0 0
0 0 0
0 0 0
0 0 0
0 0 0
0 0 0
0 0 0
0 0 0
0 0 0
0 0 0
0 0 0
0 0 0
0 0 0
0 0 0
0 0 0
-0.9307978106102617 0.3645190557455608 0.02722671044227261
-0.9421264297335393 0.3340694650396435 0.02820253402906008
-0.9562121032686411 0.2912988910099717 0.02834377637015823
-0.9702465973172385 0.2405537974243402 0.02748474011245184
-0.9835930347374061 0.1785090416976015 0.02606269457027127
-0.9914851302896822 0.1275838143477557 0.02606926794002161
-0.9966922384912558 0.07695948151791818 0.02611168197918817
-0.999345596867324 0.02528858233866585 0.02586243656718479
-0.9993185636180147 -0.02682970094774384 0.025349074055709
-0.9966091777939745 -0.07848262362417897 0.0247108179929901
-0.9913474781208056 -0.1290365150223624 0.02407811069004671
-0.9834366725709872 -0.1797438320374238 0.02333379281228342
-0.9702439816389851 -0.2411746477355329 0.02148034876275589
-0.9563182083811704 -0.2917003495268249 0.01914132713673851
-0.9422603554429713 -0.3344179153558592 0.01760910132647834
-0.9309073066647151 -0.3648393226039627 0.01743143941638517
0 0 0
0 0 0
0 0 0
0 0 0
0 0 0
0 0 0
0 0 0
0 0 0
0 0 0
0 0 0
0 0 0
0 0 0
0 0 0
0 0 0
0 0 0
0 0 0
0 0 0
0 0 0
0 0 0
0 0 0
0 0 0
0 0 0
-0.8806648070669005 0.4729754070871264 0.02690282298542163
-0.8960498986007888 0.443083180307917 0.02778263028831627
-0.9183062582414147 0.3948516463645864 0.02838650097893725
-0.9359756722267952 0.3508257443713192 0.0295099658743946
-0.952352321494801 0.3034947835267616 0.03026503123253721
-0.9673205787974454 0.2517174530509844 0.03048313737953866
-0.9802678128515 0.1953123749591884 0.03046459051320735
-0.9897055506122883 0.1397877702773507 0.03069694395397338
-0.9959728499311934 0.08419216517172552 0.03081820117451102
-0.999134755046472 0.0281649853261669 0.03060187673660583
-0.9991557703589298 -0.0280620728759699 0.03000444341021121
-0.996035802551793 -0.0840684971564063 0.02907177017087477
-0.9898160527406209 -0.1396028103021083 0.02784307979964161
-0.9804537835744598 -0.1949919909203664 0.02623931690112121
-0.9676419123648755 -0.2511782391661003 0.02405455475087957
-0.9527913017031475 -0.3028533510886126 0.02164678112834813
-0.9364895640571294 -0.3501428959427674 0.01967863900018034
-0.9189089527110068 -0.3940397341205016 0.01841261963448916
-0.8969529738928598 -0.4417855565217278 0.01734602760119093
-0.8816995772730664 -0.4715058545822881 0.01697305308781063
0 0 0
0 0 0
0 0 0
0 0 0
0 0 0
0 0 0
0 0 0
0 0 0
0 0 0
0 0 0
0 0 0
0 0 0
0 0 0
0 0 0
0 0 0
0 0 0
0 0 0
0 0 0
0 0 0
-0.8422715925192289 0.538343585515796 0.02765408413088818
-0.8641491833527453 0.5024419903891233 0.02825305655321035
-0.8854614716949628 0.4637636383452416 0.0296861902670879
-0.9075729932519694 0.4187225875122085 0.03134735438184202
-0.9278783968704607 0.3714023021616012 0.0331965445515892
-0.9464326502650642 0.3210120380801978 0.03487850225917961
-0.9629689393073907 0.2671678627510579 0.03622368068308369
-0.976971918869603 0.2100881365707893 0.03726720558961297
-0.9877301164782702 0.1514590209444023 0.03807074961680145
-0.9950347342553266 0.09178910756596981 0.03847905089361971
-0.998769802398515 0.03143756577937797 0.03834789791758887
-0.9988667669854577 -0.02915162368633259 0.03762133235903457
-0.9953257499263446 -0.08948744007621894 0.03631321525510955
-0.9882180573505528 -0.1491221090112303 0.03446255548188106
-0.9776665247754424 -0.207696368567923 0.03209960774224742
-0.9638798026584799 -0.2647223994342199 0.02928783475845134
-0.9475342509116106 -0.3185706996813493 0.02629738872792534
-0.9291319229159455 -0.3690007573257453 0.02350129595455053
-0.9089710237353719 -0.4163246672942585 0.02110567250276725
-0.8870590021295258 -0.4612606084671032 0.01910439262386864
-0.8659639572170008 -0.4997932027404977 0.01769687247700861
-0.8445238646984066 -0.5352532641082066 0.0168340493161027
0 0 0
0 0 0
0 0 0
0 0 0
0 0 0
0 0 0
0 0 0
0 0 0
0 0 0
0 0 0
0 0 0
0 0 0
0 0 0
0 0 0
0 0 0
0 0 0
-0.766059214850872 0.6421136748031229 0.02903976537257355
-0.7872602304823073 0.6159054193537175 0.02969585680975115
-0.8195517822573505 0.57222659064798 0.02985975810667226
-0.846284477725336 0.5318074038330254 0.03136029319907702
-0.8712256035401701 0.4897222202834989 0.03373565912600261
-0.895367464225642 0.443824987203245 0.0365579641143019
-0.9180438534786538 0.3944998774555786 0.0395642487303444
-0.938865699694318 0.3416537853027494 0.04247221357312252
-0.9573858936641304 0.2852739362397225 0.0450669714450441
-0.9730617699608091 0.2256580677877603 0.04721470409767961
-0.9853174981653513 0.1636093765015168 0.0487995873953586
-0.9937639792505545 0.09983135557882439 0.04966743387167367
-0.9981511529880849 0.03500245783134141 0.04969007681943467
-0.9983521433035125 -0.03017559946903889 0.04881015425058845
-0.9943660063495013 -0.09498961117621557 0.04704486353614224
-0.9863176105666167 -0.1587451911709778 0.04446948803672927
-0.9744528180362007 -0.2207801899897393 0.04120452802060702
-0.9591482897129565 -0.2804169259154875 0.03742867885482475
-0.9409554044331716 -0.3368781307726919 0.03340736258825008
-0.920404072004925 -0.3898588522241033 0.02943500601761407
-0.8979536327272215 -0.4393373196478209 0.02572922534111853
-0.8740242283804034 -0.4853655321256682 0.02240420559642757
-0.8493138150368098 -0.5275270828131871 0.01952486840488099
-0.8229499251838381 -0.5678613228472331 0.01693926368248591
-0.7913454381228813 -0.6112056853015253 0.01414241200068835
-0.7704289634744281 -0.6373979776079247 0.01276833509291655
0 0 0
0 0 0
0 0 0
0 0 0
0 0 0
0 0 0
0 0 0
0 0 0
0 0 0
0 0 0
0 0 0
0 0 0
0 0 0
-0.7173462933400983 0.6961498732073601 0.02810070220826573
-0.7434043197188132 0.6682019007508032 0.0292615320245175
-0.7698091626595522 0.6375211581411733 0.03099396727970279
-0.7989513182723559 0.6004823001158806 0.03313303907591242
-0.827176447290268 0.5607774050870274 0.03616389072140584
-0.8545341816375671 0.5178528706995368 0.03999670888037461
-0.8810332200184833 0.4709706206998957 0.04435244820093862
-0.9062093616347423 0.4199882211492204 0.04893349549608748
-0.9295277363308769 0.3648608520284843 0.0534298235879901
-0.9503920754168821 0.3056845747585753 0.05754862065644683
-0.9681566570829985 0.2427928166639839 0.06102733422198196
-0.9821849654890872 0.1768174460521397 0.06362612937149784
-0.9919561730796705 0.108540710917474 0.06512959974284635
-0.9971038692066431 0.03884681536195569 0.06538194666247829
-0.9974379908416179 -0.03131546183009783 0.06431793121831145
-0.9929563534589675 -0.1009805517860807 0.06197264143513551
-0.9838427128362344 -0.169216888497505 0.05847359272578449
-0.9704513152271401 -0.2351710761373897 0.0540260096832532
-0.9532821400792399 -0.2980973263556066 0.04889933972542488
-0.9329447644749435 -0.3573929308162926 0.04340920917653798
-0.9100650331112432 -0.4127315465719169 0.03787223221021615
-0.8852360112242985 -0.4640017693101629 0.03255092178005727
-0.8590067722020976 -0.5112182092567835 0.02762802626356244
-0.831871389226806 -0.5544829587527237 0.0232086242308368
-0.8038803663457493 -0.5944774837968655 0.01931004563357126
-0.7750308167916662 -0.6317211510419591 0.01598813151886111
-0.7488777255162515 -0.6625643396512382 0.01380753591789234
-0.7233256004265559 -0.6903875268152884 0.01285062587702869
0 0 0
0 0 0
0 0 0
0 0 0
0 0 0
0 0 0
0 0 0
0 0 0
0 0 0
0 0 0
0 0 0
-0.6619321045605506 0.7490570847915998 0.02755671743059796
-0.6898359690627497 0.7233965541160353 0.02870124179025257
-0.7176142645164296 0.6957546277762816 0.03090736628104898
-0.7460727477780412 0.6649940818376386 0.0340341908062829
-0.775689806415123 0.6299683202404297 0.03801630856776943
-0.8054729799243502 0.5910752805658213 0.04293356863600217
-0.8350386634070096 0.548032201802659 0.04869431591842976
-0.8640349099971596 0.5004120811607291 0.05505836298499345
-0.8919177155810095 0.4479682064258176 0.06170311713672941
-0.9180216393374651 0.3906116585044063 0.06825541699081321
-0.9415944057352258 0.3284458538955762 0.07431888149677765
-0.9618349553120088 0.2618273588188619 0.07949813151190631
-0.9779596477903717 0.1914043205423815 0.08342249919200768
-0.9892925960532081 0.1180774787216953 0.08577801823912148
-0.99533902770048 0.04294354476479222 0.0863485489125128
-0.9958373596612685 -0.03278022923133526 0.08504945428639556
-0.990785019399643 -0.107845774007737 0.08194104198703138
-0.9804346796202603 -0.1810660979163542 0.07721986262136205
-0.9652623508189928 -0.251396414502118 0.07119295517725309
-0.9459134949047071 -0.3179946620547743 0.06424215953586811
-0.9231344852687504 -0.3802611480393659 0.05678187562402231
-0.8976931583563271 -0.4378644088337404 0.04921130883161252
-0.8703223596827256 -0.4906992246322845 0.04187196175922667
-0.8416865031755876 -0.5388293429137379 0.03502527069417596
-0.8123481933407081 -0.5824585113021737 0.02885299616578121
-0.7826979234402841 -0.6219587709571055 0.02347866844165751
-0.7531637699075387 -0.6575575749641636 0.01903605279231361
-0.7247818561525251 -0.6887986017979846 0.0157399858081642
-0.6972398115319851 -0.7167083849860348 0.01362850342299736
-0.6699226655989232 -0.7423245567779203 0.0125648128237884
0 0 0
0 0 0
0 0 0
0 0 0
0 0 0
0 0 0
0 0 0
0 0 0
0 0 0
-0.6056740774242906 0.7952660960662103 0.02665986466287396
-0.6322283708577631 0.7742758767364575 0.02800274605335062
-0.6596565162570193 0.7509524975199248 0.03039123275288344
-0.6881944525195056 0.7247299752570525 0.03398320887275497
-0.7178947276632477 0.695070210272382 0.03878869403856775
-0.7487193725743124 0.6613725411485637 0.04478462846355549
-0.7802410460525976 0.6233189523846937 0.05193643858405737
-0.8120587127472162 0.5804720838632377 0.06010662947465804
-0.8436977144760947 0.5323615965789879 0.0690311312067584
-0.8745189592374153 0.4786235741836259 0.07833303370863652
-0.9037248668761649 0.419067458568741 0.08754330447495072
-0.9303898524229751 0.353742892010587 0.09612850181054554
-0.9535131903344445 0.2830098162989305 0.1035279659641504
-0.9721023455194145 0.2075855440501621 0.109202892530602
-0.9852804186015292 0.1285379234975914 0.1126964903771282
-0.9923924516341097 0.04722598810938172 0.1136966489687928
-0.9930889096307309 -0.03480685805635558 0.1120843441373051
-0.9873686379150829 -0.1159708465491255 0.1079533955574917
-0.9755724354416112 -0.1947733730891557 0.1015960449131519
-0.9583302405815256 -0.2699416706821883 0.09345931957950246
-0.9364755621410145 -0.3405047737534936 0.08408341432025987
-0.9109461471463544 -0.4058274646189145 0.07403503197943184
-0.8826895812778267 -0.4655993108032879 0.06384657299399475
-0.8525927513003013 -0.5197813811650813 0.053971438968236
-0.8214372609516146 -0.5685395214540382 0.04476202481034116
-0.7898722206952181 -0.6121860420216327 0.03647087780533478
-0.7584077778277791 -0.6511227482728085 0.02927130355815935
-0.7275017496088376 -0.6857103361548953 0.02329247102434578
-0.6976629229087077 -0.7161836684728058 0.01863864295790634
-0.6690616730996825 -0.743048556930166 0.01534013145479984
-0.641799981735937 -0.7667553722893399 0.01337843448188571
-0.6158081580706845 -0.7877927314735422 0.01276419566779051
0 0 0
0 0 0
0 0 0
0 0 0
0 0 0
0 0 0
0 0 0
0 0 0
-0.5780367104694289 0.8155476943540712 0.02748671649068701
-0.5991945478072044 0.8000545287065005 0.02964194619688468
-0.6257588291620076 0.7793056463024987 0.03329560581875218
-0.6546897033160899 0.754917517210427 0.03848291284107962
-0.6853209537486096 0.7268347003617075 0.04523835433790971
-0.7174209513761183 0.694578423018882 0.05355364416347133
-0.7507021471500583 0.6575953734356599 0.06336095880198253
-0.7847941713685347 0.6152640041443985 0.07448700416969374
-0.8191817285469501 0.5669550553233423 0.08662136490575503
-0.8531486813342977 0.5121286366701917 0.09930552371282736
-0.8857657662180174 0.450431596583572 0.1119391986543678
-0.9159146664710897 0.3818014299945597 0.123806267197024
-0.9423513426935143 0.3065687961891621 0.1341250167823217
-0.9638131759338769 0.2255322266031879 0.1421245111149423
-0.979161587866738 0.1399716694502971 0.1471411451552023
-0.987533469936688 0.05158139726612482 0.1487178711886298
-0.988466044342682 -0.03767754492479938 0.1466808842009417
-0.9819624664671996 -0.1257797661822453 0.141170694086248
-0.9684809818635935 -0.2108484624382191 0.1326179235848913
-0.9488530717940182 -0.2913313588493172 0.1216712270755309
-0.9241555273525118 -0.3661067089234203 0.109098299459992
-0.8955699733493987 -0.4345099613365164 0.09568446234522926
-0.8642593261632898 -0.4962936232099263 0.08214899086987826
-0.8312794945463006 -0.551544121279862 0.06909040619703334
-0.7975286980751748 -0.600585673468245 0.05696336165651374
-0.7637284041888271 -0.6438907855441163 0.04608232770344314
-0.7304345116968897 -0.6819990118426567 0.03664385306931586
-0.6980890800886557 -0.7154332111598332 0.0287568536266284
-0.6670801277548292 -0.7446471198840141 0.02246708710631839
-0.6377684663612975 -0.7700231158449057 0.01777032300384772
-0.6109578899114935 -0.7915273777597553 0.01465834273238478
-0.5897784684344224 -0.807457272954238 0.01319509471173013
0 0 0
0 0 0
0 0 0
0 0 0
0 0 0
0 0 0
0 0 0
-0.4982257694488264 0.8665691332609796 0.02879270630626262
-0.5320980439063315 0.8461713794559029 0.02942224091991257
-0.559235453295766 0.8283776581184895 0.03234444785748619
-0.5870627087386917 0.8086798981440513 0.03733896552017063
-0.6165833061325363 0.7860407215016509 0.04432844165808892
-0.6479552081220447 0.7598092891813096 0.05332815711526145
-0.6811625848753133 0.7292994843255335 0.06434123971833197
-0.7160531484434417 0.6937525567605287 0.07729992621253411
-0.7523210341171789 0.6523393512728656 0.09201321864685941
-0.7894559856102321 0.6042092974322478 0.1081220221814499
-0.826689731359723 0.5485818716225226 0.1250680542405551
-0.8629678458263607 0.4848698662307928 0.1420834610049419
-0.8969627798433686 0.4128278864318972 0.1582115917365991
-0.927143120272543 0.3327074546021317 0.1723699050979108
-0.9519088803411825 0.2453808938513566 0.1834603511942159
-0.9697844028154657 0.1523849083635808 0.1905178515490688
-0.9796342469112033 0.05584387347211128 0.1928683594432995
-0.9808474829230786 -0.04173505116226812 0.1902535170448723
-0.9734357009976903 -0.1377576665095266 0.1828818234297339
-0.9580149243551824 -0.2298553778997714 0.1713881850166064
-0.9356809217359486 -0.3161350427693868 0.1567158174293934
-0.9078208637859931 -0.3953137114148128 0.1399583825367338
-0.8759158454262257 -0.4667302072283126 0.1222061593859971
-0.8413780138270884 -0.5302620217831119 0.104428090583279
-0.8054434709069123 -0.5861923607463891 0.08740326868029981
-0.7691208072535605 -0.6350688545375124 0.07169891105200053
-0.7331836028666618 -0.6775798624371229 0.05768305216569246
-0.6981948758118525 -0.7144567618857101 0.04555711564462044
-0.6645525787787937 -0.7464027537325114 0.0353949044210885
-0.6325328497355621 -0.7740566117505859 0.02717638332468958
-0.6023032469889378 -0.797996099022296 0.0208092434216137
-0.5738891691264639 -0.8187740840332818 0.01613136307931472
-0.546547340082323 -0.8373297372155428 0.01284197116827735
-0.5134331869550313 -0.8580670426278026 0.01035919346167106
0 0 0
0 0 0
0 0 0
0 0 0
0 0 0
-0.4317425166927902 0.9015658052497012 0.02788365263434358
-0.4609943295782008 0.88693054783396 0.02895568019743618
-0.4892239534976736 0.8715981546402769 0.03125028242703076
-0.5162492444764228 0.8556974503710481 0.0356172852139165
-0.5440936058556867 0.8379583475747548 0.04228422633491633
-0.5736682175444385 0.8174761769520662 0.05135636567379163
-0.6053461063945099 0.7934708683396077 0.06292910748925984
-0.6392712110432052 0.765110326035189 0.07706171374736005
-0.6754192824437677 0.7314537674205587 0.09372395120467586
-0.7135754704062934 0.6914484408170608 0.1127346518426889
-0.7532742840945725 0.6439740116200124 0.1336986360432929
-0.793729336020991 0.5879397118211175 0.1559507499288713
-0.8337800700570185 0.5224374367129921 0.1785214818907551
-0.8718835643004604 0.4469464575328251 0.2001447336343951
-0.9061814841384859 0.3615646814107924 0.2193310259878495
-0.9346645319139364 0.2672118458690201 0.2345208779818386
-0.9554305997893306 0.1657264069279183 0.244309490263807
-0.9669909555654334 0.05978346665927873 0.2476982619415169
-0.9685410159654484 -0.04739069947119561 0.2442998608191317
-0.9601060819885773 -0.1524525934791352 0.2344238001356267
-0.9425116446129059 -0.2524020310153039 0.219009165352558
-0.9171950025857577 -0.3449361531117615 0.1994301318962876
-0.8859303515282222 -0.4286162550715219 0.1772442329937534
-0.8505545095847018 -0.502845521113335 0.1539591118491691
-0.8127562903671943 -0.5677154633926167 0.1308677389331018
-0.7739533157227373 -0.623797009796534 0.1089658462578212
-0.7352478830116054 -0.671937790196234 0.08893906134626049
-0.6974388867795147 -0.7130990175158295 0.07119543823665128
-0.6610656546145354 -0.7482413923446151 0.05591975564366291
-0.6264633320955278 -0.7782566378872768 0.04313118505396876
-0.593808854354923 -0.8039400538278433 0.03273277166660059
-0.5631342713755357 -0.8260007665302964 0.02454640694085758
-0.5342647757317176 -0.8451183957775436 0.01833157196555081
-0.5065200759726829 -0.8621177935737174 0.01379574717846336
-0.4781380820744919 -0.8782198166193805 0.01067371384044165
-0.4493539370615042 -0.8933073300899127 0.009113355855923804
0 0 0
0 0 0
0 0 0
0 0 0
-0.4010131229615391 0.9156559132877914 0.02761745233965407
-0.4205524866272191 0.9067854590762452 0.02959285723862115
-0.4444595269099423 0.8951775808946927 0.03335907076816043
-0.4698027060440229 0.881893400945631 0.03936301261668788
-0.4967026782309376 0.8665955733136946 0.04794331810922176
-0.5256429070945446 0.8486319217080142 0.05935819808045337
-0.5570070686336752 0.8272200771935585 0.07382458520034357
-0.5910465387379618 0.8014308633097377 0.09150169605249348
-0.6278645714082526 0.7701580585323113 0.112439516399136
-0.6673658553142261 0.7321127600375885 0.1365053909223184
-0.7091741471826551 0.6858617533643691 0.1632963081018872
-0.7525329507189877 0.6299298552008636 0.1920482637484441
-0.7962146093967146 0.5629847417362994 0.2215637072161162
-0.8384757418050072 0.4841102754245675 0.250191270097283
-0.8771073669247393 0.3931431123140293 0.2759006345161034
-0.9096237085461429 0.2909975106096976 0.2964880396739802
-0.933599046772254 0.1798553896131482 0.3099110496465728
-0.9470960665856949 0.06309214548016598 0.3146878164731097
-0.9490604742890262 -0.05511962488760278 0.3102354639536521
-0.9395366903463669 -0.1704497252311888 0.297014643850445
-0.9196204928712183 -0.279091096640908 0.2764169113261206
-0.8911774477015166 -0.3782601568680885 0.2504436272583892
-0.8564471210639786 -0.4663932421809803 0.2213044790986742
-0.8176694886133443 -0.5430561882026487 0.1910669616799323
-0.7768216684396549 -0.6086771882483822 0.1614316448180887
-0.7354864813297378 -0.6642284246446554 0.1336421927210109
-0.6948283277025695 -0.7109444254150584 0.1084970920960663
-0.65563536473669 -0.7501160151027004 0.08641893538474138
-0.6183912559828837 -0.7829623636962261 0.06754399721018541
-0.5833500695385737 -0.8105668185143932 0.05180858126599505
-0.5505969709356677 -0.8338587376439427 0.03902026718664361
-0.5200834972039622 -0.8536259604695668 0.02891151238702901
-0.491635257957681 -0.8705436090794924 0.02118012803869454
-0.464978887197369 -0.885185504507736 0.01553245215928527
-0.4401823535021613 -0.8978313342774664 0.01176396424857323
-0.4202563485388982 -0.9073515157320404 0.009890824612750293
0 0 0
0 0 0
0 0 0
-0.3216388089319585 0.9464938578982517 0.02641691786932407
-0.3514600043807146 0.935792157223405 0.02772911466082152
-0.3734867333143407 0.9271272591085237 0.03070350885645416
-0.3957447367486364 0.9176612221776 0.03583273150716935
-0.4192895349870888 0.906809550192039 0.04350546552816401
-0.444616708792908 0.8940843024945015 0.05412247495340755
-0.4722039880795874 0.8788574417264551 0.06806607645342118
-0.502485813445481 0.8603285895616144 0.08568970340102645
-0.5358208039295694 0.8374875109500038 0.1072880938363445
-0.572450897632363 0.8090741965415665 0.1330372665478349
-0.6124311511031911 0.7735571327102374 0.1629031847188257
-0.6555242950370643 0.7291551195832575 0.1965215260516893
-0.7010666316460465 0.6739356886592166 0.2330585024063553
-0.7478283539056864 0.6060271226740955 0.2710791022525854
-0.7939142812346531 0.5239699961969329 0.3084729439303387
-0.8367752729095537 0.42719226142718 0.3425111887572042
-0.8734068392580164 0.3165130263755008 0.3701080886334993
-0.9007718472527153 0.1944875616490808 0.3883100147571852
-0.9163853742918467 0.06536962372738221 0.3949236104333742
-0.9188801471576195 -0.06543339695354006 0.389072931110237
-0.9083222933737019 -0.1923030177011137 0.3714433479595281
-0.8861387616654153 -0.3104159074971677 0.3440930970635617
-0.8547050263807164 -0.4164452469194402 0.3099236586608785
-0.8167879300248658 -0.5087726358982625 0.2720438977937716
-0.7750518548339058 -0.5872719467169906 0.2332515442987621
-0.7317446126256067 -0.6528674357541111 0.1957394523984663
-0.6885728646437163 -0.7070653148981666 0.1610156841562409
-0.6467144350932373 -0.7515777897120504 0.1299664012488737
-0.6069026700830342 -0.7880756568752704 0.1029849896183635
-0.5695324627574841 -0.8180554173930625 0.08011309468031033
-0.5347583526475489 -0.8427884841217462 0.06116433033597286
-0.5025706275089813 -0.8633210425364161 0.04582075816770792
-0.472846118444037 -0.880500228176665 0.03370306296537598
-0.4453790933656065 -0.8950089675626356 0.02442153097769748
-0.4199114529752869 -0.9073941024784929 0.01761574430539153
-0.3961642458714949 -0.9180879079626779 0.01298012117749547
-0.3733374023113741 -0.9276392857578113 0.01022445862293941
-0.3439293443929192 -0.9389528194978396 0.008955937835518778
0 0 0
0 0 0
-0.2906189587091093 0.956487018640465 0.02594617526933389
-0.3060764674910991 0.9515924416140235 0.02808951959772717
-0.3241029246345279 0.9454755818887683 0.03214371315576155
-0.3436169869008153 0.9383170864410766 0.0385799378684493
-0.3647248073491753 0.9298830389203103 0.04788892181324458
-0.3877664522802707 0.9197654939376546 0.06056908986928707
-0.4131875107267279 0.907373836388596 0.07712847734067241
-0.4414651911473423 0.8919027838497748 0.09807093945844338
-0.4730572549145384 0.8722819758694612 0.1238587427111615
-0.5083472996189867 0.8471169122344295 0.1548417255667511
-0.5475627499370839 0.8146402488833068 0.1911447090051981
-0.5906512877439752 0.7727038715407097 0.2325075981390311
-0.6371133639617174 0.7188578367388372 0.2780826711978711
-0.6858079493251873 0.6505768771022086 0.3262164674297092
-0.7347817279461232 0.5656919390795228 0.3742839060619066
-0.7812142248965561 0.4630363981342877 0.4186903734528627
-0.8215987430055992 0.3431996585298394 0.4551807332001435
-0.8522433318597965 0.2091161304965402 0.4795328427403759
-0.8700389575001568 0.06611553013015216 0.4885293738432199
-0.8732456119826291 -0.07881318765601245 0.4808644118715595
-0.8619440656287543 -0.2184015287672124 0.4575513085540434
-0.837931373807998 -0.346578248978605 0.4216094521273978
-0.8041377685173425 -0.4594373702662828 0.3771998834129602
-0.7638702205392092 -0.5554299759203798 0.3286332728475098
-0.7201867400591393 -0.634934725299113 0.2796228782705897
-0.6755445252149315 -0.699561474389741 0.2329234595350663
-0.6317037804944484 -0.7514902383555324 0.1902964933081164
-0.5897939089132378 -0.7929924666167762 0.1526633318707661
-0.5504484667010274 -0.8261529571255475 0.1203236341671923
-0.5139472685248277 -0.8527476878935915 0.09316429556435143
-0.4803356674700258 -0.8742202862062407 0.07082752107481032
-0.4495127767618652 -0.8917101351502849 0.05283273983144825
-0.4212921924144495 -0.9061006000642153 0.03865994275596867
-0.39544754478386 -0.9180675836630764 0.02780559568606342
-0.3717637433519508 -0.928115733211114 0.01982182874864502
-0.3501186503454489 -0.9365955206735639 0.01434438337804773
-0.330622363993254 -0.9436977730939202 0.01110700162454994
-0.3145375209274291 -0.9491934123137384 0.009900199443836896
0 0 0
0 0 0
-0.2470228204098288 0.9686459359659464 0.02654763517581622
-0.2574112901305008 0.9658652139897576 0.02904851317830552
-0.2717503092820923 0.9617711999536257 0.03388109125824077
-0.2881301726125158 0.9566935715143124 0.04145375560151667
-0.3062290168260241 0.9505208299223177 0.05228710297534521
-0.3262568457939934 0.9429065942278843 0.06695987704682332
-0.3486306846976742 0.933296830407587 0.08610268310791422
-0.3738572443950787 0.9208946329539176 0.110380414068742
-0.4024730240961159 0.904593428646924 0.1404499687565967
-0.4349879492336868 0.8828922997589221 0.1768803862723965
-0.4718023416426944 0.8538114519045937 0.22001944236144
-0.5130761581729514 0.8148409052363845 0.2697909469719715
-0.5585382622822112 0.7629806848009142 0.3254158634539737
-0.6072428879385412 0.694960424997209 0.3850793200572553
-0.6573200539993738 0.6077407434751811 0.4456248818574807
-0.7058289400382931 0.4993539946858057 0.5024451167995836
-0.7488817972537551 0.369984086824983 0.5498070836559568
-0.7821906795499666 0.2229134630044343 0.5817966387291451
-0.8020186549006768 0.06474203905904256 0.5937798797279897
-0.8062198750091722 -0.09558157848848854 0.5838438789555331
-0.7948606203856572 -0.2487467122238256 0.5534633387298247
-0.7700828755389943 -0.3872115523092464 0.5069907085537729
-0.7353250495451972 -0.5065053599884279 0.4502770167511835
-0.6943496196947474 -0.6053336077073935 0.3891655547574965
-0.6504956728687608 -0.6848157872300208 0.3284550458427219
-0.6063149684164516 -0.7474443326571667 0.2714942516018327
-0.5635271335641852 -0.7961959042261839 0.2202481596526555
-0.5231501347032945 -0.8339552225947201 0.1755922073069158
-0.4856854208208708 -0.8632275513213999 0.1376512500550312
-0.4512895549605743 -0.8860488271500607 0.1060905909564453
-0.41990716438832 -0.9040049145038703 0.08033111382403225
-0.3913638699530657 -0.9182978487773118 0.0596940719529224
-0.36542962330641 -0.9298223591717677 0.04349219233819961
-0.3418690635926125 -0.9392333359220443 0.03108510979646175
-0.3205052074820406 -0.9469932365998418 0.02191396383700139
-0.3013472766004164 -0.9533880199263131 0.01552747070502928
-0.2849294598893407 -0.9584782116503623 0.01160692373935481
-0.273377943889336 -0.9618552604776479 0.009947747801113703
0 0 0
0 0 0
-0.1955245476505682 0.9803057275063737 0.02776385931817792
-0.2044283569087622 0.9784117783241014 0.03032225137176353
-0.2161564687518924 0.9757061569703593 0.03569140326246387
-0.2294071986649353 0.972325651144792 0.04421725145870557
-0.2440634335067887 0.9681172026056425 0.05641030441242182
-0.2603930022914801 0.962745745024682 0.07291169175446575
-0.2788285250058176 0.9556830685002872 0.09446971062173765
-0.2998956327477862 0.9461497373687134 0.1219150685351029
-0.3241764209245675 0.9330259070498347 0.1561163184627735
-0.3522681940653992 0.9147374443897081 0.1978952432002534
-0.3847129473133818 0.8891303079239913 0.2478774771947596
-0.4218748815178564 0.8533656057994327 0.3062494525429574
-0.4637460705983611 0.8039024706941433 0.3723981734869694
-0.5096744503297058 0.7366846631831253 0.4444408416334806
-0.5580486069133446 0.6476882395397349 0.5187308518721376
-0.6060506463646297 0.5339614359415014 0.5895657715372422
-0.6496825699486491 0.3950941387661923 0.6494714618961472
-0.6842953280657019 0.2346446437436818 0.6904214619707684
-0.7056675969783266 0.06063167526577132 0.7059440788966924
-0.7112797575271992 -0.1156962457772553 0.6933220645883823
-0.7011145889139437 -0.2826391454494239 0.654639936661101
-0.6775074489825422 -0.4310286162025507 0.5959848895632183
-0.6441932707841088 -0.5559154460565298 0.5253313684830183
-0.6051542048715323 -0.6564880113207072 0.4503463992511608
-0.5637939080593816 -0.7348414417565685 0.3770205361943255
-0.5225945773643399 -0.7945110254370723 0.3092687151464209
-0.4831346398807536 -0.8393421568688227 0.2491699489306171
-0.4462765595676251 -0.8728394631984859 0.1974550679619596
-0.4123862802920208 -0.8978997706214891 0.1539920703958078
-0.3815183867831554 -0.916777271733118 0.1181657927657525
-0.353549566961687 -0.9311590509585529 0.08913767732653702
-0.3282666281339913 -0.9422759950618332 0.06600734795287065
-0.305422847113983 -0.9510110169823959 0.04790542807341282
-0.2847791188477647 -0.957988506424958 0.03404225353833244
-0.26614983477983 -0.9636395222898135 0.02373049783987337
-0.2494915587836046 -0.9682381996750112 0.0163936202780109
-0.2351487507003474 -0.9718904896184319 0.01157329829000974
-0.224697187379921 -0.9743871848411553 0.008988214554639103
0 0 0
-0.1026854287703907 0.9943290205108503 0.02766770117254648
-0.1330832414906391 0.9906997066791864 0.02833623157933378
-0.1470710529217965 0.9886312935919767 0.03127731962825849
-0.1576529523786737 0.9867931182318761 0.03721408895159858
-0.1678773950443307 0.984706831562709 0.04657935279563133
-0.1787220923551114 0.9820721560868533 0.05993908527104332
-0.1907302938088196 0.9785374927127701 0.07801493689676464
-0.204387930416341 0.9735954541330408 0.101673327827914
-0.2202173212532 0.9664910355991581 0.1319068213798317