# OOMMF: rectangular mesh v1.0
# Segment count: 1
# Begin: Segment
# Begin: Header
# Title: 
# Desc: time = 1.28e-09
# Desc: stepsize = 3.021150675720751e-14
# Desc: step = 8190
# meshunit: m
# valueunit: (none)
# valuemultiplier: 384000.0000000001
# xmin: 0
# ymin: 0
# zmin: 0
# xmax: 9.357999999999999e-08
# ymax: 9.357999999999999e-08
# zmax: 2.3395e-08
# ValueRangeMaxMag: 1
# ValueRangeMinMag: 0
# meshtype: rectangular
# xbase: 1.16975e-09
# ybase: 1.16975e-09
# zbase: 1.16975e-09
# xstepsize: 2.3395e-09
# ystepsize: 2.3395e-09
# zstepsize: 2.3395e-09
# xnodes: 40
# ynodes: 40
# znodes: 10
# End: Header
# Begin: Data Text
0 0 0
0 0 0
0 0 0
0 0 0
0 0 0
0 0 0
0 0 0
0 0 0
0 0 0
0 0 0
0 0 0
0 0 0
0 0 0
0 0 0
0 0 0
0 0 0
-0.9915155142689689 0.128858882204248 0.01709893099035777
-0.995120553660562 0.09708311624134267 0.01760546003846696
-0.9983801929893189 0.05411722537870071 0.01755893402004482
-0.9998308714826399 0.006893221490213334 0.01705027647139171
-0.9990080853287053 -0.04143644147526596 0.01630542136039982
-0.9959481030193136 -0.08856583599827217 0.01560348634623649
-0.9912157079226005 -0.1313702168551169 0.0152737189622107
-0.986501099239489 -0.1630094581390116 0.01560441464794616
0 0 0
0 0 0
0 0 0
0 0 0
0 0 0
0 0 0
0 0 0
0 0 0
0 0 0
0 0 0
0 0 0
0 0 0
0 0 0
0 0 0
0 0 0
0 0 0
0 0 0
0 0 0
0 0 0
0 0 0
0 0 0
0 0 0
0 0 0
0 0 0
0 0 0
0 0 0
0 0 0
0 0 0
-0.9381229188302562 0.3455547533286604 0.0227442655930776
-0.9487459107712675 0.3151624996275648 0.02353286262448475
-0.961872041186718 0.2724989250107314 0.02337760148714749
-0.9748069520363599 0.2219476051691965 0.02215100045685441
-0.9868750976484209 0.1602063525534184 0.02028463070773098
-0.9937677439464814 0.1096650085568778 0.0199814161094711
-0.9980293274807581 0.05956420086568551 0.01973746345245517
-0.9997789250115726 0.008539865218168272 0.01921384409115496
-0.9989119499300138 -0.04283307321106206 0.01844570753081991
-0.9954481436145152 -0.09366926779711554 0.01758014916794812
-0.9895295946720271 -0.1433547590471298 0.01675095002537278
-0.9810500373433284 -0.1931062385280473 0.01583682007861457
-0.9673071957432646 -0.2532309732926222 0.01381532585833067
-0.9530306313564897 -0.3026609202304977 0.01135707099028673
-0.9387404698859151 -0.3444871853395483 0.009742142228794709
-0.9272498878971621 -0.3743224792081728 0.009504049355222604
0 0 0
0 0 0
0 0 0
0 0 0
0 0 0
0 0 0
0 0 0
0 0 0
0 0 0
0 0 0
0 0 0
0 0 0
0 0 0
0 0 0
0 0 0
0 0 0
0 0 0
0 0 0
0 0 0
0 0 0
0 0 0
0 0 0
-0.8904845912261115 0.4544131317525235 0.02336447045682747
-0.9051691389053428 0.4243715109455323 0.02403436438030765
-0.9263589230586166 0.3758611455033661 0.02423932694149873
-0.9430652102870729 0.3316647406478155 0.02503016095064742
-0.9584022069665606 0.2842870487085962 0.02541817495772245
-0.9722500310437644 0.232580057211928 0.0252268532063459
-0.9840122951530981 0.1763691968222707 0.02477315885790039
-0.9923243648363447 0.1211889889239449 0.02460861466512513
-0.997514655283569 0.066112993340828 0.02436359181273124
-0.9996584262848707 0.01077111607860317 0.02381205190814737
-0.9987408236261525 -0.04462686611809195 0.02291746153114991
-0.994781714250034 -0.09968467684599364 0.02173260674361558
-0.9878360826843396 -0.1541680561309904 0.02029985752781877
-0.9778673742270831 -0.208402833072614 0.01853800392537183
-0.9645703324266109 -0.2633259047231943 0.01623396760276657
-0.9493855937143697 -0.3138119633465504 0.01374940392149149
-0.9328687378541226 -0.3600251649313717 0.0117387627369373
-0.915171835709936 -0.4029283577966279 0.01045225366214588
-0.8931991328816783 -0.4495636306361328 0.009372887958136978
-0.8779578715133278 -0.4786537370578628 0.008976405089378315
0 0 0
0 0 0
0 0 0
0 0 0
0 0 0
0 0 0
0 0 0
0 0 0
0 0 0
0 0 0
0 0 0
0 0 0
0 0 0
0 0 0
0 0 0
0 0 0
0 0 0
0 0 0
0 0 0
-0.8535744814206427 0.5203801054215693 0.02480222870865061
-0.874692636573175 0.4840285243946686 0.02508344268609067
-0.8952041006945001 0.4448855462581658 0.02620055019124926
-0.9163701591500153 0.3993883117931722 0.02747194609733169
-0.9356650781857856 0.3517036659924816 0.02890316230165589
-0.9531207821339741 0.3010865146640744 0.03012781690997729
-0.9684763344011857 0.2471716884917503 0.0309797694145572
-0.9812401057885227 0.1901967237039924 0.03151287172561644
-0.990755401077557 0.1318754072424976 0.03182156816176449
-0.9968453232671004 0.07273393014297257 0.03176754454576107
-0.9994263269114826 0.01312590459142447 0.03122062947601339
-0.9984623076171059 -0.04652658337206479 0.0301379711932557
-0.993981662120164 -0.1057626090849051 0.02854340358802354
-0.9860770904284499 -0.1641668355134492 0.02648059383136974
-0.9748851314108292 -0.2214136991766407 0.0239782061673888
-0.9606203359465384 -0.2770625757077466 0.02109263634893086
-0.9439572856346498 -0.3295717949063859 0.0180852121758783
-0.9253756493507985 -0.3787417842501025 0.01531562769318237
-0.9051537621400818 -0.4248862756120244 0.01297380746729262
-0.8832826453842675 -0.4687109959512584 0.01103497337327633
-0.8622911312736951 -0.5063203556787992 0.009679997521934228
-0.8410138793390659 -0.540941163073964 0.00884945485561559
0 0 0
0 0 0
0 0 0
0 0 0
0 0 0
0 0 0
0 0 0
0 0 0
0 0 0
0 0 0
0 0 0
0 0 0
0 0 0
0 0 0
0 0 0
0 0 0
-0.7796724376304375 0.6255919326348958 0.02730611326327745
-0.8003200592416269 0.5989307544060827 0.02774444452569202
-0.831737497486974 0.5544893384798507 0.02746468252652406
-0.8577250264735856 0.5133133576441806 0.02858628735851369
-0.8818743196355461 0.470492937474465 0.03056272491109421
-0.9051053185811316 0.4239106940459555 0.03292545747022978
-0.926749579850171 0.3740067455377897 0.03541427028418943
-0.9464151263345623 0.3207387478203292 0.03775002373219476
-0.9636675499207444 0.26413330400843 0.0397297236755921
-0.9779925831634371 0.2045228649657474 0.04124202933306764
-0.9888598413435851 0.1427418793616265 0.04220154089900218
-0.9959283306325517 0.0795109119385458 0.04248264499956095
-0.9989980280472912 0.01550334899471789 0.04198316481127577
-0.997989829306887 -0.04860489382878493 0.04066773777704614
-0.9929434230856565 -0.1121417872741731 0.03856913400495672
-0.9840136287598035 -0.1744640426413408 0.03576976712537143
-0.9714634761031938 -0.2349675064601229 0.0323880457176793
-0.9556727532351118 -0.2930393680776389 0.02859226260159497
-0.9371816241289506 -0.3479711118187284 0.02463145823251131
-0.916496272731772 -0.399503189764324 0.0207793993392325
-0.8940500935248268 -0.4476354885968644 0.01723077528419589
-0.870237526685571 -0.492431220374733 0.01407623346037318
-0.8457288460841749 -0.5334919779130217 0.01135906702073365
-0.8196479567474977 -0.5727982167848386 0.008912342439582452
-0.7884486079211289 -0.6150691394849648 0.006224654244054612
-0.7677822990870291 -0.6406920246122926 0.004906200855721847
0 0 0
0 0 0
0 0 0
0 0 0
0 0 0
0 0 0
0 0 0
0 0 0
0 0 0
0 0 0
0 0 0
0 0 0
0 0 0
-0.732010161967212 0.680757558638984 0.0270234922359321
-0.757601171836331 0.6521204507335467 0.02791741691656903
-0.7835341433690354 0.6206536853906645 0.02938109912745614
-0.8120947181544523 0.5826931595956649 0.0311584740650236
-0.8396947600426046 0.5420069942926899 0.03378058754368138
-0.8663256423433789 0.4980968742475769 0.03714007650941264
-0.8919482054223269 0.4502802401789901 0.04094025095478835
-0.9160790775531786 0.3984781016315361 0.04488124540878567
-0.9381803851328934 0.342709430356045 0.0486601612916598
-0.9576708719729996 0.2831294584734781 0.05200202610465085
-0.9739384871517635 0.2201241867262606 0.05467326277657284
-0.9863983738055941 0.1543670444334431 0.05647179602741791
-0.9945930032836834 0.08666176691170252 0.05722321185396665
-0.9982246820874999 0.0178870707289025 0.05681141410005756
-0.9971695814132033 -0.05104151704714195 0.05520497660304269
-0.9914814589160527 -0.1192148735331355 0.0524626586647487
-0.9813837999381544 -0.1857739197188814 0.04872256121378214
-0.9672510261054947 -0.2499459851858371 0.04418661547740543
-0.9495830687781577 -0.3110667399746532 0.03910855112884343
-0.9289715030030411 -0.3686067269438184 0.0337790979754583
-0.9060117469815896 -0.4222929621904844 0.02848452941078012
-0.8812618180903552 -0.4720460413878155 0.02345512281301224
-0.8552356254059162 -0.5178966996983765 0.01884233207648215
-0.8283946800796904 -0.5599513153271564 0.01472339903196018
-0.8007664607629227 -0.5988739499501067 0.0110935741931615
-0.7723258658596456 -0.6351762508432874 0.007992952446572365
-0.7465477188819344 -0.6653050432796803 0.005975183578955402
-0.7213799013277169 -0.6925205794741822 0.005126886497266222
0 0 0
0 0 0
0 0 0
0 0 0
0 0 0
0 0 0
0 0 0
0 0 0
0 0 0
0 0 0
0 0 0
-0.677552973800055 0.734971825095576 0.02717322230394167
-0.7050986624877801 0.7085538126877365 0.02806012622235855
-0.732593331534964 0.68000405860862 0.03002483749008756
-0.7607494735263249 0.6482127048339137 0.03287138301501988
-0.7899856892051762 0.6120383514480663 0.03649201567131333
-0.8192869159641747 0.5719189391368633 0.04095944807337435
-0.8482222651973661 0.5276244362678072 0.04616755437021705
-0.8763947136160434 0.4787927719292971 0.0518631612429534
-0.9032320346950035 0.4252531559354166 0.05772040252537711
-0.9280601006296909 0.3669987310404572 0.06337492433053864
-0.9501406580094203 0.3042151578525839 0.06845339823670214
-0.9687114318731641 0.2373344239143489 0.07259843650856047
-0.983051865107115 0.1670636726405402 0.07549013043621215
-0.9925681434256807 0.09433490127649681 0.0768726678192596
-0.9968573650551158 0.02023963408617019 0.07658819065253317
-0.9957475751106036 -0.05404854889154177 0.07460241969313591
-0.9893115121859312 -0.1273585268350356 0.07101082663083821
-0.9778535964696129 -0.1986026323514557 0.06602528526644423
-0.9618733898206305 -0.2668443455943335 0.05994728667171307
-0.9420121870610986 -0.3313453197432077 0.05313490860664487
-0.9189894803281426 -0.3915935194157789 0.04596575461986459
-0.8935316611102171 -0.4473210161750065 0.03879534871315091
-0.8663242363650436 -0.4984610508135181 0.03192018653464802
-0.8379847636187363 -0.5450947066463239 0.02555966997063999
-0.8090334514618497 -0.5874269980293302 0.01985941595252581
-0.779825446996864 -0.6258193253094902 0.01491456621278125
-0.750756928025479 -0.6604896324439413 0.01083884015069196
-0.7228289966454434 -0.6909825314990549 0.007834715802018881
-0.6957342820897924 -0.7182747169908301 0.005936299920269183
-0.6688731719443575 -0.7433596966286804 0.005004126418218177
0 0 0
0 0 0
0 0 0
0 0 0
0 0 0
0 0 0
0 0 0
0 0 0
0 0 0
-0.6220506342574033 0.7825140541292623 0.02692143217118542
-0.6483533627647888 0.7608225499987877 0.02805288585745859
-0.6756585127451589 0.7365938406412249 0.03025042287983968
-0.7041214018872948 0.7092830285717873 0.03362494288921901
-0.7337252413666484 0.6783744545720419 0.038149306226163
-0.7643720770769605 0.6432881849304691 0.04376801245104844
-0.7955838520682453 0.6037415012640608 0.05042354588552752
-0.8269036349412434 0.5593490756153028 0.05795679536744752
-0.8578034166036181 0.5097115892821922 0.06608626343333759
-0.8876038060659959 0.4545547261941461 0.07442771225640482
-0.9154880222870564 0.3937919767719062 0.08252005864641526
-0.9405394497959736 0.3275838597992269 0.08985743250575805
-0.9617997120201713 0.2563962597805432 0.0959284729809813
-0.9783530266395783 0.181031920109827 0.1002636482805457
-0.9894280906489258 0.1026065720867453 0.1024887545022767
-0.9944917368196048 0.02247656294992895 0.1023767039686429
-0.9933147759610783 -0.05787203363774885 0.09988284927865994
-0.985996707538375 -0.1369541227652901 0.09515282960098126
-0.9729453944238252 -0.2134125156540809 0.08850060808640225
-0.9548180200897523 -0.2861192738913433 0.08036360880258557
-0.9324375892594139 -0.3542374608102984 0.07124579633048028
-0.9067021766576041 -0.4172400390623111 0.06165965169901236
-0.8785022760250649 -0.4748915048586188 0.05207503847234615
-0.8486616728713291 -0.5271948528390262 0.04288300525002773
-0.8179013100887441 -0.5743304587103589 0.03437980733896288
-0.7868171983947073 -0.616605202505017 0.02677163711934973
-0.7558761180103835 -0.6544030780552769 0.02019667431364191
-0.7255015699198215 -0.6880622174503811 0.01475997835831557
-0.6961767986893783 -0.7177928256008784 0.0105510417739154
-0.6680643461463851 -0.7440647702596473 0.007592566526564013
-0.6412670525294448 -0.7672953809174369 0.005862231909655497
-0.615725427389696 -0.7879424686217411 0.005372542047484445
0 0 0
0 0 0
0 0 0
0 0 0
0 0 0
0 0 0
0 0 0
0 0 0
-0.594686823502787 0.8034648199461376 0.02814009703403225
-0.6159001910104427 0.7872450380544218 0.03020272788990792
-0.6425966236875523 0.7654622235584992 0.03372185537949617
-0.6716942431314006 0.7398158775580924 0.03872093822576667
-0.7024681458095742 0.7102780900189517 0.04520551915295384
-0.7346241924160082 0.6763904985553182 0.0531336934648377
-0.7678099778291386 0.6376312123699099 0.06240412612717234
-0.8015858337928877 0.5934296428249054 0.07281078271290169
-0.8353678415917283 0.5432329247860761 0.08401522875492325
-0.868381648622629 0.4866055475776161 0.09554241676937242
-0.8996617235874789 0.4233244637455648 0.1067950443894101
-0.9280875988415519 0.3534741833458147 0.1170871922309665
-0.952457423477145 0.2775328053570081 0.1256996356953619
-0.9715995625948419 0.1964230356305577 0.1319556025305015
-0.9845097287103056 0.1114993849974917 0.1353088364444134
-0.9904854366915631 0.02445981657007584 0.1354264267980261
-0.9892251305963927 -0.06280934744847055 0.1322445721746128
-0.9808663899603483 -0.1484255769969718 0.1259800505606709
-0.9659543479552729 -0.2306972420883925 0.117093894627827
-0.9453514440639107 -0.3082667834169194 0.1062178772526738
-0.9201141417873058 -0.3801866951906967 0.09406403607641614
-0.8913662845117697 -0.4459263888137927 0.08133758414885624
-0.8601928440440959 -0.505324547442365 0.06866857219644286
-0.8275671493906754 -0.5585091590602812 0.05656971358570002
-0.7943112207543546 -0.6058106735041769 0.04542149768713253
-0.7610826816944112 -0.6476838236134755 0.03547980065151344
-0.7283879915731426 -0.6846366809131194 0.02689886392230301
-0.6966334684218429 -0.7171550406907706 0.01976001736769822
-0.6661836875004221 -0.7456545276776594 0.0140932559100415
-0.6373866762196305 -0.7704806802405474 0.009886675566361504
-0.6110320108431831 -0.7915738021863121 0.007127230685221765
-0.590197553542726 -0.8072375290250975 0.005866815629894244
0 0 0
0 0 0
0 0 0
0 0 0
0 0 0
0 0 0
0 0 0
-0.5152728188680307 0.8564892557972987 0.0303327684127611
-0.5491851784743539 0.8351362542009908 0.03070955328931543
-0.576598661660507 0.8163394959912605 0.03352328528121973
-0.6048098781733374 0.7954428092147823 0.03841547256571849
-0.6347600694240885 0.7713830218285372 0.04525359543064281
-0.6665468035826435 0.7435040010249672 0.05401073128208719
-0.7000869422983742 0.7111252261340453 0.06464662388025412
-0.735152059426687 0.6735096278169164 0.07704693867129987
-0.7713511604223718 0.6298741342602114 0.09097231614622699
-0.8080846171461541 0.5794474230692922 0.1060185617243953
-0.8445007532017244 0.521568081193972 0.1215944674784083
-0.8794829150947496 0.4558089317372891 0.1369234085354001
-0.9116809592325582 0.3821171184110573 0.1510772530529717
-0.9395984298618543 0.300947806423737 0.1630497114682469
-0.9617385917395657 0.2133538174370626 0.1718692227940443
-0.9767936822321008 0.1209881056455244 0.1767370381209335
-0.9838386400797624 0.02599204732294332 0.1771607850568661
-0.9824781596268771 -0.06922391207666831 0.1730454155792217
-0.9729035069639973 -0.1622612421912267 0.1647120378712934
-0.9558434135512819 -0.2510060068177593 0.1528376698070058
-0.9324280745465909 -0.3338278779842166 0.1383359449958375
-0.9040096889115888 -0.4096707170787366 0.1222145078219652
-0.8719869414852308 -0.4780377410908809 0.1054452083878622
-0.8376673934857172 -0.5389020660446023 0.08887013617466299
-0.8021815476553852 -0.5925821822269401 0.07315136299733378
-0.7664449970380172 -0.6396166022296645 0.05875941343795296
-0.7311573439609839 -0.6806569483017023 0.04598974995075097
-0.6968277055864107 -0.7163843520134553 0.03499441266030303
-0.6638184031105878 -0.7474480462749856 0.02581754851676938
-0.6323854529589884 -0.7744347428803113 0.01842465483423446
-0.6026896360386609 -0.7978743077798512 0.01271973256043861
-0.5747625656109455 -0.8182756196875557 0.008544202553186738
-0.5478966610540685 -0.8365272263460092 0.0056078862020407
-0.5154226886298191 -0.8569294831950895 0.003363461996957511
0 0 0
0 0 0
0 0 0
0 0 0
0 0 0
-0.4488974680190292 0.8930782892901992 0.03003718369946139
-0.478227200453793 0.8776909310245455 0.03094146640664331
-0.5067663191348137 0.8614462750459958 0.03313929691363323
-0.5342979278517227 0.844465554665301 0.03746533433962494
-0.56278073842975 0.8254294157841057 0.04409217629891567
-0.593065490621683 0.8034028792274726 0.05307671318637763
-0.6254633544663613 0.7775858013215995 0.06446637730423893
-0.6600467475188629 0.7471362960086417 0.07826650801113574
-0.6967054581925538 0.7111209629042844 0.09438474793517274
-0.7351227429381699 0.6685224983219475 0.112570964517687
-0.7747187452761678 0.6182973996545527 0.1323600819663465
-0.8145907751312651 0.5594858445685459 0.153027640635491
-0.8534787594691632 0.4913720330535317 0.1735728442695352
-0.8897833108728147 0.4136834182384224 0.192747734530878
-0.9216615626768571 0.3267966799459411 0.2091504096586073
-0.9472133421870902 0.2318928638317714 0.2213878589414093
-0.9647409760682876 0.1309911912673531 0.2282896338101376
-0.9730281845217599 0.02680885332358725 0.2291231928674214
-0.9715575603715579 -0.07755147978600631 0.2237446644455827
-0.9605945243770809 -0.179015189471105 0.2126304815293263
-0.941111062975697 -0.2749336841002217 0.1967776320922484
-0.9145820409084282 -0.3633596661293871 0.1775089954850564
-0.8827261928074195 -0.4431486053593717 0.1562491027166609
-0.8472659392249606 -0.5139023609625039 0.1343309034675525
-0.8097532113701268 -0.5758128861804743 0.1128683161222762
-0.7714742040730149 -0.6294715097271486 0.09269935755835441
-0.7334213135417775 -0.6756921765651095 0.07438588153243587
-0.6963107663181332 -0.7153729422850025 0.05824834895472825
-0.6606256371992248 -0.7494004024744184 0.04441626105715438
-0.6266672259791845 -0.7785930546358804 0.03287922073775919
-0.594596607346856 -0.8036798102156364 0.02352949602874498
-0.5644445503484007 -0.8253121861809946 0.01619089012804279
-0.5360487557735545 -0.8441200578757623 0.01063293588072749
-0.5087596208653645 -0.8608834802764467 0.006578872551028465
-0.4808692630262562 -0.8767841342013735 0.003786012325986328
-0.4526084151633616 -0.8917060924381373 0.002422236986240569
0 0 0
0 0 0
0 0 0
0 0 0
-0.4181115252158128 0.907896289265168 0.03011777581835277
-0.4379676341880853 0.8984179406510564 0.03208668446577009
-0.4624177364713982 0.8859359967883009 0.03587821889932077
-0.4885025529636891 0.8715540871077853 0.04193720297865036
-0.5163007326233631 0.8549128667272277 0.05057216424883845
-0.5462463734682735 0.8353268169183936 0.06200006782047314
-0.5786655999334713 0.8119797985259003 0.07638671507188706
-0.6137380265402228 0.7839145940049466 0.09382720332916131
-0.6514746240211471 0.7500121096200346 0.1142919493219418
-0.6916630422937947 0.7090001344837652 0.1375537903036292
-0.7337859992935951 0.6595108131184955 0.163106083946861
-0.7769311176302535 0.6002044365361227 0.190085961659876
-0.8197213179399733 0.5299716176059432 0.2172257936960808
-0.8603049693859117 0.4482089979277053 0.2428663291330174
-0.8964498448827137 0.35512940692763 0.2650675007332802
-0.92577115580573 0.2520223823101344 0.2818376942370314
-0.9460819906783052 0.1413488476431157 0.291460752390674
-0.9557911142679573 0.02657139851164022 0.2928434849327394
-0.9542231799466343 -0.08829223702313696 0.2857666945849055
-0.9417424486728484 -0.199281198303119 0.2709394108846843
-0.9196355655012899 -0.3030745875080352 0.2498323859549772
-0.8898091837478233 -0.3973692178517922 0.2243598030438758
-0.8544209908148507 -0.4809802542247094 0.1965267551782764
-0.8155577769010048 -0.5537081873528236 0.1681450439196494
-0.7750231976148686 -0.6160781510877718 0.1406654005471718
-0.7342420023646886 -0.6690556680429498 0.1151225217891528
-0.6942533605797461 -0.7138058473699923 0.09216009757012707
-0.6557567907535157 -0.7515216748824292 0.07209856838077831
-0.6191798571196986 -0.7833195937812307 0.05501562083296507
-0.5847463101591732 -0.8101884752573334 0.04082140756304676
-0.5525300636204362 -0.8329771299537887 0.02931944354084971
-0.5224853552018469 -0.8524077143915411 0.02025196398842258
-0.4944508237117544 -0.8691033191600671 0.01333429997117391
-0.4681726922041152 -0.8835980665964448 0.008293791736904862
-0.4437316672548481 -0.8961460510920586 0.004945966775209659
-0.4240911780789774 -0.905613438595622 0.00331247801472803
0 0 0
0 0 0
0 0 0
-0.3384090227650794 0.9405338011933183 0.02958888514343023
-0.3684825850124751 0.9291254731812798 0.03076425894095927
-0.3910203509507317 0.9197618793235477 0.03378121498083771
-0.4140292056711068 0.9094263593510272 0.03903221450145809
-0.4385417977530205 0.8974876859527453 0.04687158186721061
-0.4650248180016808 0.883417287319023 0.05766988042645636
-0.4939193629968724 0.8665406476376678 0.07177025044163093
-0.5256121142269864 0.8460062508434739 0.08947250366232944
-0.5603960341205422 0.8207531295774094 0.1109981316547962
-0.5984209406578596 0.789481107713024 0.136425651350391
-0.6396153799027245 0.7506462216697283 0.165597148782381
-0.6835771209816374 0.7025080614737489 0.1980018768467882
-0.7294442077811127 0.6432607101463907 0.232651684963907
-0.7757761492583655 0.5712775897789054 0.2679800023476872
-0.8204968774700225 0.4854806366564953 0.3018168741033978
-0.8609679414973846 0.3857945824778928 0.3315067779766558
-0.8942523803662074 0.2735696808804835 0.3542207079100849
-0.9175735504582486 0.1517867153670495 0.367450095302104
-0.9288723118593072 0.02486425333137103 0.3695646048628288
-0.9272726434241527 -0.1019775867959532 0.3602305047444721
-0.9132630276406072 -0.2236249776571831 0.3405033211475849
-0.8885197580282981 -0.3359245787024447 0.3125497032744057
-0.8554658448137199 -0.4361952231220412 0.2791270601046422
-0.8167564552222235 -0.5233005890727084 0.2430337143874974
-0.7748603853904085 -0.5973835898894455 0.2066984027113552
-0.7318148924930656 -0.6594488341416839 0.1719715042515358
-0.6891443406149814 -0.7109534355593037 0.1400902932567591
-0.6478899233798121 -0.7534918147831843 0.1117529965488343
-0.6086940436981296 -0.7885942921971006 0.08723877280528962
-0.571898329824404 -0.8176220583816058 0.06653172169636279
-0.5376317144740741 -0.8417298268980656 0.04942709886104371
-0.5058778882638906 -0.8618696251305147 0.03561336045716579
-0.4765195763652444 -0.8788159307936723 0.02473162194314963
-0.4493650912080281 -0.8931973012846998 0.0164193721356555
-0.4241754246649043 -0.905520944507655 0.01034544190993087
-0.4006946978603796 -0.9161904337076492 0.006232839575039291
-0.3781648347970921 -0.9257303949918161 0.003820145440078371
-0.3492656734466599 -0.9370196423782376 0.002771127786690707
0 0 0
0 0 0
-0.3071350648428288 0.95121093635036 0.02942459025138599
-0.3229553635912943 0.9458857638920494 0.03162206182348891
-0.3416425264225117 0.9391467800789672 0.03582889346534048
-0.3620850580179568 0.9311756394217832 0.04250105066424993
-0.3843657253824706 0.9217089924386741 0.0521106746155789
-0.408805068915355 0.9102945427364459 0.06513264230288819
-0.4358260353421767 0.8962840599333893 0.08203993434443833
-0.4658729648371391 0.8788031523568475 0.1032831062735861
-0.4993515282373183 0.8567051479821435 0.1292452732905442
-0.5365627511797479 0.8285216965950803 0.1601630803825549
-0.5776083764475207 0.7924327739043089 0.1960073016496602
-0.6222565735760941 0.7462900185904465 0.2363217399936143
-0.6697717579873036 0.687740974865117 0.2800323975795917
-0.7187358657675699 0.6145093647189768 0.3252645014938161
-0.7669226491644565 0.5248700493508507 0.3692439322358688
-0.8113226958150884 0.4182921002681413 0.4083958889467478
-0.8484237462275259 0.2960998070839754 0.4387505567883446
-0.8747855746865383 0.1618641091841042 0.4566729776091186
-0.8877963110929443 0.02120764752512653 0.4597476978693956
-0.8863335491243832 -0.1190936983704662 0.44747014504324
-0.871026309280016 -0.2524517464821395 0.4214039442626879
-0.8439980572797575 -0.3737097672764221 0.3847184543925558
-0.8082422922962664 -0.4798201354306177 0.3413459163063466
-0.766928593840502 -0.5698377253993757 0.2951364068723058
-0.7228812272034898 -0.6444384679779418 0.2492825552400704
-0.6783158703897766 -0.7052788327103442 0.2060809261142175
-0.6347932431173587 -0.7544300053396779 0.1669518060271259
-0.5933006734511871 -0.7939852624640895 0.1325960552663538
-0.5543824561392603 -0.825839897172301 0.1031918434928056
-0.5182696124968244 -0.8515999955636621 0.07857516349560617
-0.4849865624820495 -0.8725706313402297 0.05838259615979061
-0.4544291785814942 -0.8897848935985175 0.0421540600372319
-0.4264185445074447 -0.9040479413693984 0.02940313938858345
-0.4007419061202985 -0.915979927217034 0.01966462851279266
-0.3772011111517248 -0.9260466278450459 0.01252855948313225
-0.3556925360633108 -0.934571598694165 0.007664639788148672
-0.3363451232751336 -0.9417263892702135 0.004833818482427833
-0.3204236730940348 -0.9472665404732253 0.00384330857643789
0 0 0
0 0 0
-0.2631384759958337 0.9642768786222642 0.03046709380778755
-0.2739960572687234 0.9611606791271862 0.0331105647937339
-0.2891313117084301 0.956527027439376 0.03819856499599029
-0.3065896748932488 0.9507232715885771 0.04613059840023874
-0.3260335675609857 0.94361286372567 0.05741843114275644
-0.3476668712927636 0.9348011956190744 0.07262555524503099
-0.3719008711098703 0.9236667951002758 0.09235471670090264
-0.3992288584729257 0.9093267953440666 0.117222428876448
-0.4301562754681296 0.8905722035343928 0.1478063901435991
-0.4651308388294996 0.8657906884467207 0.1845529370362848
-0.5044424435238601 0.8328999913319919 0.2276300191337788
-0.5480736913234294 0.7893315492402597 0.2767145356736453
-0.5954952279975768 0.7321282128117307 0.330716968777253
-0.6454254784161142 0.6582428688153089 0.3874819705033016
-0.6956203445866695 0.5651207374102052 0.4435661036937653
-0.742818069733559 0.4515731756993765 0.494270151097645
-0.7830001698577235 0.3187676599808923 0.5341328607688182
-0.812066589563723 0.1709119621353238 0.5579757658836061
-0.826813167091727 0.01509938634831386 0.5622739503619668
-0.8258323086477211 -0.1399381185607097 0.5462767805492588
-0.8098809662163228 -0.2857847414126794 0.5122693648230419
-0.781527911630892 -0.4161240648678612 0.4648170457069149
-0.7443120153545405 -0.5276069270785871 0.4094271049864091
-0.7018518577501817 -0.6196803849889734 0.3512836321728294
-0.6572325527572531 -0.6937798507089511 0.2944739213350638
-0.6127492081452379 -0.7523922231580856 0.2417526637880479
-0.569916562711077 -0.7983102707713835 0.1946684954698894
-0.5296121154200123 -0.8341714459633861 0.1538473462224574
-0.4922522927079589 -0.8622396761694877 0.1192913289509941
-0.4579488599585011 -0.8843469746354976 0.09062709371788846
-0.4266277564531879 -0.9019208752290498 0.06728664243208662
-0.3981117186097808 -0.9160471289438986 0.04862835653408865
-0.3721767544800862 -0.9275384512214452 0.03401301119265773
-0.3485984067041353 -0.936993604068311 0.02285031243582981
-0.3272127070974697 -0.9448374779125294 0.0146282140343683
-0.3080415946727087 -0.9513309283832824 0.008935359695937929
-0.2916271668295282 -0.9565163600540804 0.005481652659043505
-0.2800887141845328 -0.959965491282066 0.004070348146747728
0 0 0
0 0 0
-0.2110909557273069 0.9769362192921696 0.03219055521816347
-0.2205673680369352 0.9747455831011071 0.0349440178305376
-0.2331958185258866 0.971579429164284 0.0406586158992785
-0.2476319536373415 0.9675801272983656 0.04967003920907704
-0.2637552316420209 0.962563633797378 0.06248542767918314
-0.2818421709057847 0.956141514742488 0.07973954154028126
-0.302337456904535 0.947710235465863 0.1021634560189516
-0.3257751865420393 0.9363904914594666 0.130550278964838
-0.3527327548082919 0.9209364223336901 0.1656976454406508
-0.3837754684692606 0.8996250176516454 0.2083055866184962
-0.4193657973209244 0.8701448872471452 0.2588053384979478
-0.4597150621219366 0.8295260769615681 0.3170939124281225
-0.5045621058211363 0.7741893918481225 0.382162095084238
-0.5528862540077393 0.7002376352875198 0.4516459279748143
-0.6026133400552489 0.6041315764887472 0.5214232452400615
-0.6504567632796089 0.4838212686523606 0.5855108701838373
-0.6921100702284025 0.3401548497295802 0.6366147413419529
-0.7229693107556975 0.1779823352634706 0.6675609815137434
-0.7393050870644735 0.00610836819675844 0.6733429112113406
-0.7394117210975186 -0.1643914919119024 0.6528749835080094
-0.7241003039166534 -0.3229483564749249 0.6094121010596641
-0.696258269722181 -0.4619877290796324 0.5493557681715178
-0.6597976391035627 -0.5779898943682822 0.4802028294809456
-0.6185923307045611 -0.6710354280395092 0.4087236018501143
-0.5758086997363714 -0.743545453653455 0.3399772046169951
-0.5336838921913754 -0.7989848346004256 0.2771366761978541
-0.4936016651393431 -0.8409320940830791 0.2217895608740738
-0.4562917331974247 -0.8725737930102169 0.1743927463154723
-0.4220391296111688 -0.8965156179978053 0.1346949136495492
-0.3908539271708763 -0.9147772903543523 0.1020574184812245
-0.3625915023415748 -0.9288709987309877 0.07567080114665463
-0.3370311737061518 -0.9399038101036318 0.0546883507058754
-0.3139268654870614 -0.9486742555828391 0.03830247929069
-0.2930449332204362 -0.9557509266099091 0.0257843634423953
-0.2742083954117705 -0.9615287023157061 0.0165018334973863
-0.2573844555109003 -0.9662581125026051 0.009924821623568772
-0.2429284543713019 -0.97002787692394 0.005628858428060005
-0.2324215622390914 -0.9726094038686324 0.00334139381742715
0 0 0
-0.1169449742314106 0.9925999989744498 0.03269732462964087
-0.1479198854423334 0.9884386127684374 0.03329889306168167
-0.1626158524553815 0.986015496106313 0.03646266540490514
-0.1741596501233309 0.9837856747430531 0.04282712270599074
-0.1856188753240801 0.9812019765887139 0.05280449092476525
-0.1979864357956255 0.9779148928277903 0.06696143387469757
-0.2118274776385505 0.973513754198235 0.08602377638855022
-0.2276556253377058 0.9674110011401168 0.1108551808675365