# OOMMF: rectangular mesh v1.0
# Segment count: 1
# Begin: Segment
# Begin: Header
# Title: 
# Desc: time = 9.199999999999999e-10
# Desc: stepsize = 3.1478024491925164e-14
# Desc: step = 5886
# meshunit: m
# valueunit: (none)
# valuemultiplier: 384000.0000000001
# xmin: 0
# ymin: 0
# zmin: 0
# xmax: 9.357999999999999e-08
# ymax: 9.357999999999999e-08
# zmax: 2.3395e-08
# ValueRangeMaxMag: 1
# ValueRangeMinMag: 0
# meshtype: rectangular
# xbase: 1.16975e-09
# ybase: 1.16975e-09
# zbase: 1.16975e-09
# xstepsize: 2.3395e-09
# ystepsize: 2.3395e-09
# zstepsize: 2.3395e-09
# xnodes: 40
# ynodes: 40
# znodes: 10
# End: Header
# Begin: Data Text
0 0 0
0 0 0
0 0 0
0 0 0
0 0 0
0 0 0
0 0 0
0 0 0
0 0 0
0 0 0
0 0 0
0 0 0
0 0 0
0 0 0
0 0 0
0 0 0
-0.9916354407125532 0.1289216935544751 -0.006192709735315813
-0.9950630893134605 0.09910334252147493 -0.005289214216013252
-0.9982567885570041 0.05882211450263553 -0.004831453745561982
-0.9998826488922754 0.01455786496086616 -0.004770431002287091
-0.9995144707373149 -0.03077039523577689 -0.004899547299379602
-0.9971685645405071 -0.07503431821652826 -0.004970410647534699
-0.9933180866498632 -0.1153123628141838 -0.00471568833412356
-0.9894040723206279 -0.1451335824484688 -0.003978054930583525
0 0 0
0 0 0
0 0 0
0 0 0
0 0 0
0 0 0
0 0 0
0 0 0
0 0 0
0 0 0
0 0 0
0 0 0
0 0 0
0 0 0
0 0 0
0 0 0
0 0 0
0 0 0
0 0 0
0 0 0
0 0 0
0 0 0
0 0 0
0 0 0
0 0 0
0 0 0
0 0 0
0 0 0
-0.94319998668795 0.3322174056060602 -0.002319595703787338
-0.9528076601982455 0.3035717131587862 -0.001333280684663345
-0.9646496672614014 0.2635326138970911 -0.001257324553822002
-0.9763324111820688 0.2162643456844885 -0.00218074782296096
-0.9873546926757737 0.1584862384142927 -0.003580933456010335
-0.9938000849193458 0.1111277555304176 -0.003466001308743236
-0.9979316067789857 0.06420334758750386 -0.003230843553832644
-0.9998601376420365 0.01641612041530207 -0.003196270476345739
-0.9994905157215306 -0.03174309029122681 -0.003329444619111586
-0.9968289057137218 -0.07949780275758893 -0.003497440535423132
-0.9919828505499169 -0.1263217156488199 -0.003584462358499334
-0.9848451594209172 -0.1733964341263389 -0.003699810462438832
-0.9730930285193481 -0.2303648106119811 -0.004691681867851281
-0.9607727154380565 -0.2772684888841406 -0.006162332487644188
-0.9483520750574659 -0.3171442324890915 -0.006919359298613931
-0.9383140953002813 -0.3457215196251675 -0.006579470258237728
0 0 0
0 0 0
0 0 0
0 0 0
0 0 0
0 0 0
0 0 0
0 0 0
0 0 0
0 0 0
0 0 0
0 0 0
0 0 0
0 0 0
0 0 0
0 0 0
0 0 0
0 0 0
0 0 0
0 0 0
0 0 0
0 0 0
-0.9002537472433523 0.4353603607801389 -0.002132331045899226
-0.9134820956288255 0.4068767044484596 -0.001344746344021224
-0.9325810606821502 0.3609590543531387 -0.001061290461202402
-0.9476833110508632 0.3192119802135437 -0.0002316113574246144
-0.9615342975880329 0.2746848209466478 0.0002090535724086116
-0.9740602920504499 0.2262886047748299 0.0001216538226301418
-0.9847897331360741 0.1737502896518406 -0.0001354831391230325
-0.992507301342359 0.1221853363776217 -1.887841780620104e-05
-0.9974955884773167 0.07072857934814165 0.0001379553735321829
-0.9998193757081543 0.01900527988818811 0.0001236726641209899
-0.9994604847459864 -0.03284402212394352 -9.819388868982194e-05
-0.9964223183866118 -0.08451230059650071 -0.000484219925076831
-0.990730921818726 -0.1358353135578037 -0.001004063180330014
-0.982331234212949 -0.1871424845684762 -0.00174262996701338
-0.9709470331796967 -0.239276818111881 -0.002909136263305403
-0.9578075897881152 -0.2873787320720143 -0.004252681149893477
-0.9433799208170227 -0.3316737838844728 -0.00517939021734241
-0.927778725836277 -0.3730910202775291 -0.005452198995475804
-0.9083204579653235 -0.4182392543378077 -0.005465507535373265
-0.8947979390525949 -0.4464411375813336 -0.00519220014185046
0 0 0
0 0 0
0 0 0
0 0 0
0 0 0
0 0 0
0 0 0
0 0 0
0 0 0
0 0 0
0 0 0
0 0 0
0 0 0
0 0 0
0 0 0
0 0 0
0 0 0
0 0 0
0 0 0
-0.8669758726703424 0.4983495238756012 -0.0007669813944547282
-0.8860428598170985 0.4636030310227413 -0.0005293332261296118
-0.904594377971178 0.4262731662136866 0.0004462164225702793
-0.9237124756245296 0.3830835734274272 0.001496043340057191
-0.9411366198162967 0.3380158886198008 0.002668685317051413
-0.9568900101196233 0.2904275475536676 0.003653512724626505
-0.9707699202953359 0.2399728542504966 0.004334867086360418
-0.9823844375358517 0.1868090280524408 0.004817045305002646
-0.9911730416173204 0.1324711566966939 0.005233948271558253
-0.9969850361564911 0.07740006483472293 0.005483397087595192
-0.9997460409381701 0.02186580963759257 0.005453439038517694
-0.9994151938481302 -0.03381184362811748 0.005101914931842755
-0.9959967739170413 -0.08927889220344258 0.004439116327796872
-0.9895411086746938 -0.1442090438137987 0.003485100452989539
-0.9801331237839921 -0.1983281420864289 0.002237793104512639
-0.9679302323381576 -0.2512181502374926 0.0007115595918090746
-0.9534903578350986 -0.3014221628479894 -0.0009040240790209187
-0.9372050932563688 -0.3487711467058774 -0.002302259713412433
-0.9193012307510068 -0.3935406264331614 -0.003320012993783043
-0.8997909120606309 -0.4363030435661538 -0.003996091591609099
-0.8809433031427115 -0.4732025652481867 -0.004269530482829996
-0.8618123048029909 -0.5072099565906105 -0.004196573067071772
0 0 0
0 0 0
0 0 0
0 0 0
0 0 0
0 0 0
0 0 0
0 0 0
0 0 0
0 0 0
0 0 0
0 0 0
0 0 0
0 0 0
0 0 0
0 0 0
-0.8005219554125061 0.5993003006369094 0.001936119584856693
-0.8191792907102509 0.5735328731464944 0.002309348777768329
-0.8474794311429528 0.5308252739116295 0.001772672067879508
-0.8710099275693702 0.4912590532599047 0.002499733142235368
-0.8928829191461658 0.4502715807905405 0.003949206174502492
-0.9138818545650238 0.4059403810113353 0.005688845327871365
-0.9334063848006879 0.3587422364316623 0.007518551277948309
-0.9511214735340371 0.3086790540412188 0.009229527542610276
-0.9666772978553626 0.2557747218968265 0.01069081145915561
-0.9796644011791691 0.2002921563832891 0.01186225752508925
-0.98964991420917 0.1429377642071416 0.01272174788484975
-0.9963531019465562 0.08429985867122863 0.01319204568996117
-0.9996025752299968 0.02491079484576855 0.01319635910811299
-0.9993169924165042 -0.03470255399274744 0.01269966196450691
-0.9955021420392184 -0.09401228921584885 0.01171215914010995
-0.9882505603860554 -0.1524967573209842 0.01027467290145841
-0.9777425723581101 -0.2096379450747566 0.008449507877902074
-0.9642616489473428 -0.264876020717341 0.006337666628804849
-0.9482355814793896 -0.3175411116651792 0.004113929859143827
-0.9300714250786974 -0.3673733600330196 0.001989620599487863
-0.9101294921869865 -0.4143239002676813 0.0001145357333437393
-0.888764155048933 -0.4583624768850065 -0.00145481407665854
-0.8665979855268545 -0.4989995683713764 -0.00271334590076948
-0.8429148785402737 -0.5380334792445942 -0.003805620500262019
-0.8146762264267794 -0.5798932470756888 -0.005144714864452286
-0.7959175412624826 -0.6053787855723991 -0.005638571589615744
0 0 0
0 0 0
0 0 0
0 0 0
0 0 0
0 0 0
0 0 0
0 0 0
0 0 0
0 0 0
0 0 0
0 0 0
0 0 0
-0.7572267783556855 0.6531489482014773 0.002014349615366746
-0.7805490681337561 0.6250886681017089 0.002703561790687412
-0.8042102816608959 0.5943327613134737 0.003793639466757774
-0.8301833422908207 0.5574684045774555 0.004959443588546532
-0.855276324536261 0.5181282048253242 0.00675070753556824
-0.8794379991394011 0.4759264659565394 0.009099707237316932
-0.9026033959270814 0.4303121759217466 0.01177034045352297
-0.9243420749884297 0.3812875882798025 0.01454315749263395
-0.94420188595878 0.3289173855591886 0.01720906821390437
-0.9617147218846579 0.2733512269882012 0.01959337679828642
-0.9763966327242122 0.2149062103414288 0.02156238302009336
-0.9877833180396208 0.1541264567965667 0.02300330232756016
-0.9955069329782037 0.09164649286724016 0.02380896338492507
-0.9993179943247135 0.02814968115373138 0.023898570454622
-0.9990939436394362 -0.03565394609774505 0.02323979153645512
-0.9948424173349878 -0.09905001853035324 0.02185539979534776
-0.9866994779117161 -0.1613424178328317 0.01981828692401581
-0.9749227137591566 -0.2218745806746525 0.01724449613436696
-0.9598796971922469 -0.2800477118838387 0.01429146552129507
-0.9420268456188677 -0.3353520629714957 0.0111541917738338
-0.921839993655568 -0.3874873430199488 0.008036485328953792
-0.8997857007022204 -0.4363022240982531 0.005105101245954869
-0.8763219270430999 -0.4817196269504495 0.002466007742822702
-0.8518922125820811 -0.5237171283562111 0.00016615754436348
-0.8265892681169555 -0.5628027359590578 -0.001806164686392443
-0.8004817093648514 -0.5993474263047539 -0.003419876341732426
-0.776719726930111 -0.6298321256349698 -0.004237843289798615
-0.753562097683669 -0.6573637512208617 -0.004130800821319543
0 0 0
0 0 0
0 0 0
0 0 0
0 0 0
0 0 0
0 0 0
0 0 0
0 0 0
0 0 0
0 0 0
-0.7076792929752416 0.7065289317234392 0.002624296438558624
-0.7328849686945615 0.6803447462103958 0.003263275269270209
-0.7581963605551012 0.6520089874803152 0.00474964060666061
-0.7841122126011335 0.6205815029263722 0.006829075735371144
-0.8109292977309592 0.5850690994554602 0.009371389648808879
-0.8377059041283752 0.5459791652437708 0.01247274260842151
-0.8640228866477837 0.5031956663044386 0.01608019779923793
-0.8895060474134963 0.4564845742158623 0.0200206173176879
-0.9136540394399386 0.4057792235644035 0.02407317882109556
-0.9359060994185786 0.3511350790521805 0.02799873800941713
-0.9556710445193275 0.2927399959152537 0.03156183548011948
-0.9723512155014934 0.2309541076210312 0.03454437560213033
-0.9853840442983368 0.1663357045603414 0.03675212416538007
-0.9943005189043386 0.09960240664198178 0.03802418569394758
-0.9987687698840159 0.03158620604731253 0.03825252791523898
-0.9986219894924991 -0.0368155178236691 0.03739972926930824
-0.9938706814248829 -0.1046918288612606 0.03550619063942415
-0.984699385230643 -0.1711688265756571 0.03268567782845726
-0.97144870414434 -0.2354566184010327 0.02911350318035377
-0.954584413592849 -0.2968889720529548 0.02501070968477851
-0.9346555446832461 -0.3549558692157105 0.0206238624458096
-0.9122422956259415 -0.4093307453779134 0.01619675768398346
-0.8879211401399218 -0.4598407042570373 0.01194050254439653
-0.8622446947574587 -0.5064285046809905 0.008015984605302562
-0.8357148609807072 -0.5491448895659389 0.004534467952195976
-0.808717142929041 -0.5881956274312689 0.001576896770402161
-0.7816881214195159 -0.6236690768152412 -0.0007506370976454144
-0.7556001862221592 -0.6550291800466946 -0.002265362750842504
-0.7302812977483141 -0.6831403407659874 -0.002915643525593542
-0.7053735439053912 -0.7088300202359095 -0.002857616263372144
0 0 0
0 0 0
0 0 0
0 0 0
0 0 0
0 0 0
0 0 0
0 0 0
0 0 0
-0.656999528686744 0.7538855141739009 0.002872424785545771
-0.6811583232721827 0.7321262870985658 0.003799786348813855
-0.7064915161792817 0.7077000030498282 0.005517540210346655
-0.7329887168186 0.6801931782402594 0.008048682627426538
-0.7605043356809943 0.6492339409720754 0.01133337109058301
-0.7888537691613384 0.6143901334548929 0.01531322282304745
-0.8175466044916027 0.5755163924810399 0.01996074822896409
-0.8461321199319245 0.532378070179377 0.02517987314482707
-0.8741207890617121 0.484731884469373 0.03078711270807559
-0.9009220195031462 0.4324407010919573 0.03653155914368637
-0.9258608803008858 0.3755099997719581 0.04211734084355868
-0.9482077454423525 0.3141205819145517 0.0472263856418631
-0.9672172614728526 0.2486648682378575 0.05154175407573967
-0.9821829481144122 0.1797683761453161 0.05477214046718796
-0.9925040201714034 0.1082736543785453 0.05667967634979684
-0.9977474116987047 0.03519490027078507 0.05710885608611466
-0.9976934605019614 -0.03835037966747286 0.05600899259031163
-0.9923575391346939 -0.1112222727790891 0.05344268481642796
-0.9819846627883028 -0.1823406050419035 0.04957848123425586
-0.9670189360004023 -0.2507567984776958 0.04466996120286789
-0.9480538915645035 -0.3157067649108178 0.03902636645840996
-0.925772898703238 -0.3766389905141702 0.03297894557245502
-0.9008898544065006 -0.4332166799706594 0.02684731686096369
-0.8741034129187191 -0.4852895391421105 0.02091140174844596
-0.8460650473682314 -0.532857299664773 0.01539590256393409
-0.817354127450169 -0.5760404577212501 0.01047002428197994
-0.7884641871621675 -0.6150487899356837 0.006261913553648067
-0.7598668627081407 -0.6500723350077374 0.002882744469272495
-0.7320978147565288 -0.6811993840038393 0.0004345819887964675
-0.7054300394884555 -0.7087787936277337 -0.00103975522623341
-0.6801194794854953 -0.7330996235971246 -0.001560610820355828
-0.6563083536446765 -0.7544918961067382 -0.001150497923798502
0 0 0
0 0 0
0 0 0
0 0 0
0 0 0
0 0 0
0 0 0
0 0 0
-0.6318561187563605 0.7750725905817099 0.004508272297138127
-0.6518321110771195 0.7583379348442034 0.006202865867820096
-0.6770311826298819 0.7359003275246399 0.008915475080512523
-0.7044910173045937 0.7096005226019046 0.01262952335767502
-0.7334234828047171 0.6795511513255514 0.01732707715443163
-0.7634556118311413 0.6454518736338077 0.02296535621636599
-0.7941890951121843 0.6069555245781266 0.02947324870082269
-0.8251738389839289 0.563684527219434 0.03671361096279952
-0.8558631954260333 0.5152875481510638 0.04446271961547596
-0.8855825269270378 0.461515636791275 0.05241092442102054
-0.9135350147564706 0.4022842864704017 0.0601758229930818
-0.9388319394403873 0.33773042031309 0.06732572080374827
-0.9605442952752173 0.2682633694761895 0.07341267881992375
-0.9777763375467017 0.1945947865231469 0.07801476008915963
-0.9897542882593054 0.1177302403558584 0.08078390543955544
-0.9959139181853525 0.03891617375356442 0.0814923247004343
-0.9959683589359667 -0.04045269971387062 0.08006626683102236
-0.9899410927600345 -0.118950967557825 0.07659830404209723
-0.978157234805469 -0.1952430228825216 0.07133432563228817
-0.9611963519041957 -0.2681853087004661 0.06463910026679454
-0.9398188407302879 -0.3368937760424019 0.05694848788395823
-0.9148822697373643 -0.4007704171998266 0.0487186331672529
-0.887263773863411 -0.4594914591007984 0.04038062162815834
-0.8577998137692429 -0.5129675454585734 0.03230753478151031
-0.8272459307457575 -0.5612924971401401 0.02479723207882214
-0.796254057772575 -0.6046924119071686 0.01807103933369176
-0.7653707773853682 -0.6434723506133444 0.01228442593913521
-0.7350705623956018 -0.6779486517930857 0.007542799967567423
-0.7058027717577195 -0.7083975953790006 0.003910785134706917
-0.6780196854044315 -0.7350423925308084 0.001409747020029958
-0.6526030488212883 -0.7576999800419065 3.022670298688124e-05
-0.632585101038582 -0.7744908087864492 -0.0002775775898595912
0 0 0
0 0 0
0 0 0
0 0 0
0 0 0
0 0 0
0 0 0
-0.5588119884257958 0.8292571846860892 0.007853867716558357
-0.590398270418199 0.8070752676172892 0.007706794903179215
-0.6164855210574094 0.7873056508703612 0.009768031233105946
-0.6435276703115038 0.7653049011604002 0.0134367333574143
-0.6722192638192261 0.7401212772755336 0.01848665124812755
-0.7025110280768904 0.71123905823328 0.02484466690835791
-0.7342062396611421 0.6781503073098996 0.03245548240488286
-0.7669971727999241 0.6403247487762526 0.04122563548997334
-0.8004564542738277 0.597218665673491 0.05098362661233437
-0.8340070050057744 0.5483208767306693 0.0614534925175757
-0.8668970585757225 0.4932244096211857 0.07224383424620302
-0.8981998506672862 0.4317086099364223 0.0828535115008773
-0.9268433304322796 0.3638254475544593 0.09269565548070333
-0.9516737522711276 0.2899781522009419 0.1011421795509637
-0.9715532414469215 0.2109722218352943 0.1075872699154461
-0.9854819479230167 0.1280152647894309 0.1115231917528733
-0.9927229691996073 0.0426518232144126 0.1126140683929034
-0.9929017668661833 -0.04336475201629356 0.1107500773660056
-0.9860548493159681 -0.1282409237149084 0.1060664868146858
-0.9726156029187304 -0.2103171437939681 0.09892213091811862
-0.9533430021873968 -0.2882105577263257 0.08984316665946879
-0.9292136781215419 -0.3609016510333267 0.07944771030844217
-0.90130423210804 -0.4277573814588789 0.06836888028613083
-0.8706870066011818 -0.4885010861408646 0.05719113021324569
-0.8383533457079593 -0.5431482256171037 0.04640767985217908
-0.8051671616137338 -0.5919297343573422 0.036400981340195
-0.7718457977441159 -0.6352172653921461 0.0274424899102284
-0.7389644864165776 -0.673456144744053 0.01970555560142165
-0.7069812231587815 -0.707107563834992 0.0132831949566208
-0.6762653213827066 -0.7366124683865349 0.00820283564631921
-0.6471057558607338 -0.7623873684363137 0.00443183716540483
-0.6196805431742691 -0.7848519209119318 0.001867257907515118
-0.5935031270245128 -0.8048316376565559 0.0002706274031334149
-0.5626209564860339 -0.8267146184859488 -0.0007738891211876539
0 0 0
0 0 0
0 0 0
0 0 0
0 0 0
-0.4972331356347449 0.8675752858526113 0.008504834189965331
-0.524704643631843 0.8512360466746913 0.009068064447449049
-0.5519122707512442 0.833834312873062 0.01063880020083954
-0.5785990138165814 0.8154937193698597 0.01389873658975821
-0.6064036029960626 0.7949327956762439 0.01888175393719775
-0.6359377235096565 0.7713173123241316 0.02555025491914462
-0.6673317978926553 0.7439892298003018 0.03388653807206292
-0.7005105837158921 0.7122929863180703 0.04385913524119414
-0.7352481461877995 0.6755320451783987 0.0553770662322732
-0.7711559609371329 0.6329777215193816 0.06824725614454323
-0.807647700999649 0.5839163976914942 0.08213909895397009
-0.8439057324510378 0.5277299950462878 0.09656172670743671
-0.8788690006030541 0.4640035082713561 0.1108603810694431
-0.9112578414849314 0.3926493584126993 0.1242402015062704
-0.9396475216019019 0.314029369933672 0.1358237459594745
-0.9625948600665215 0.2290425694621672 0.1447433478529564
-0.9788064120523621 0.1391425618589716 0.1502576294385864
-0.9873175604799543 0.04625714140111113 0.1518693900603698
-0.9876384767901957 -0.04739023512470775 0.149413536128312
-0.9798257694622099 -0.1395247255845105 0.1430884776924923
-0.9644595494878448 -0.2280719357945036 0.133420273964082
-0.94253578595419 -0.3113579821286886 0.1211713627903394
-0.9153085393327852 -0.3882189140197901 0.107221045610354
-0.8841246236753399 -0.4580139998073834 0.09244904429673804
-0.8502851832169556 -0.5205635395547334 0.07764475827739728
-0.814951331439661 -0.5760452185427271 0.06345260892024122
-0.7790953439658587 -0.6248801047861661 0.0503517591862496
-0.7434889713057377 -0.6676296723122869 0.0386622580163665
-0.7087182807884695 -0.7049130049196569 0.0285666583865729
-0.6752131686261406 -0.7373477245446217 0.0201372794268565
-0.6432762260553418 -0.7655175944927484 0.01336074526486149
-0.6130896393026511 -0.7899712627607952 0.008154642350163584
-0.5846604051591742 -0.8112663443022372 0.004373698845797582
-0.5575543675783404 -0.830138443326923 0.001814415903067692
-0.5303525415989016 -0.8477771502931364 0.0002916512195316228
-0.5033722596653584 -0.8640696514431347 -7.519528069774149e-05
0 0 0
0 0 0
0 0 0
0 0 0
-0.4683606294271105 0.8834892046203787 0.00922746562664672
-0.487643675328835 0.8729751229364601 0.01086649188365645
-0.5116736109108565 0.8590679647491137 0.01386895234905087
-0.5376137578178956 0.8429867981874727 0.0185662458928523
-0.5653984711974903 0.8244343102852786 0.02515227210367261
-0.5952697364137404 0.802817234476974 0.03374061257089363
-0.6273665680509832 0.7774568299189691 0.04440795992024047
-0.661694978908962 0.7475894624254666 0.05718173272182161
-0.6981132632684073 0.7123577617992243 0.07200201978510298
-0.7362936664980463 0.6708268087357903 0.08867372415895693
-0.7756682600729626 0.6220358829682558 0.106818119321046
-0.8153748478699281 0.5650928787651924 0.1258328090362715
-0.8542237881864441 0.4993130061244367 0.1448731914861369
-0.8907091842448446 0.4243938541304126 0.1628711321205117
-0.9230877151186955 0.3406005527342177 0.1786066451005982
-0.9495379035689965 0.2489143108376396 0.1908387684565639
-0.9683893530882072 0.1510838388423514 0.1984835873971994
-0.9783788564495544 0.04953037814835214 0.2008022781069556
-0.978865113969802 -0.05290300486140959 0.1975458446273164
-0.9699345254010741 -0.1533077811705139 0.1890072503042319
-0.9523642364153436 -0.249077681959141 0.1759621253192858
-0.9274598704659589 -0.338189076129362 0.1595190818116587
-0.8968254861551668 -0.4193361158873762 0.1409300155929797
-0.8621336588083697 -0.4919190176581093 0.1214134853135096
-0.8249451629238792 -0.5559279955191936 0.1020271628857005
-0.786598642459902 -0.6117790314073537 0.0836001938425926
-0.7481654965283263 -0.660149295757454 0.06671804190367499
-0.7104531312028112 -0.7018397400786207 0.05174289913113733
-0.67403684179648 -0.7376752715288635 0.03885266626428943
-0.63930364080402 -0.7684413527391566 0.02808455545561466
-0.6064933536481467 -0.7948524567847605 0.01937482706643993
-0.5757256407475688 -0.8175460010865455 0.01259057954182918
-0.5470071101193003 -0.8370938634527515 0.007555478057520004
-0.5202553671955998 -0.8540010003446494 0.004079744417181106
-0.4956895543691024 -0.8684974427162403 0.002014369556758287
-0.4762124667691499 -0.8793293095590552 0.001285240847446928
0 0 0
0 0 0
0 0 0
-0.3935383261636745 0.9192538735210869 0.009995091633922164
-0.4221169663349992 0.9064769250262112 0.01080976998652468
-0.4443867663786482 0.8957359282543821 0.01332474021468105
-0.4676795143728857 0.8837230784389738 0.01758955571595779
-0.4928178915351374 0.8698071183783332 0.02379291073494894
-0.520097193460478 0.8535009087603166 0.0321730959008816
-0.5497766407620215 0.8342068963821504 0.0429476344038537
-0.5820537943379606 0.8111992861099045 0.05629474852563252
-0.6170299222593555 0.7836088806218919 0.07232701602526244
-0.6546686251567272 0.7504129201088456 0.09104636494179942
-0.6947354354568774 0.7104470685931717 0.1122837363464145
-0.7367197570754471 0.6624564737010445 0.1356297164572386
-0.7797515913380391 0.6052021246045722 0.1603678402296019
-0.8225355472398782 0.5376348972803414 0.1854292068503506
-0.8633356014461923 0.4591349941711014 0.2093960276677752
-0.9000490583548041 0.3697873315811971 0.2305840886893279
-0.930398978805044 0.2706250815596322 0.2472242008165328
-0.9522406867862186 0.1637445013442508 0.257731280034909
-0.9639250530141966 0.05220009597627161 0.2610050615441121
-0.9646134820927181 -0.06034699489744245 0.2566691846946356
-0.9544342705806762 -0.1701533646226658 0.2451592454889645
-0.9344239969205165 -0.2739331576537034 0.2276234151333237
-0.9062840304595531 -0.3692514103884337 0.2056760852898072
-0.8720482104073423 -0.4546825843339675 0.1810957377431509
-0.8337678508529005 -0.5297475636693146 0.1555592802457008
-0.7932840506952089 -0.5947091084975196 0.1304664369969789
-0.7521066549715307 -0.6503198067159519 0.1068631299394768
-0.7113834118292464 -0.6975910324654797 0.08544233609825157
-0.671927765260107 -0.7376168562425611 0.06659167860475426
-0.634275733339867 -0.7714584063633831 0.05046009658574672
-0.5987495413325484 -0.8000800633172436 0.03702538367577295
-0.5655145394901697 -0.8243235674374824 0.02615266319829973
-0.5346221562041823 -0.8449070584210374 0.01764122234710447
-0.5060398334699221 -0.8624365881286287 0.01126136753611494
-0.4796806451560768 -0.8774169148256303 0.006785001143826556
-0.4554332277418197 -0.8902609405479717 0.00400409831397238
-0.4327129206990692 -0.9015277311084545 0.002697832930890436
-0.4047304578738868 -0.9144322041335448 0.002645848193076824
0 0 0
0 0 0
-0.3637240858491109 0.9314469652525755 0.01055179107998502
-0.3795007436921123 0.925105921547733 0.01257853149030986
-0.3987395604723614 0.9169207106778107 0.0162226152147655
-0.4202738870055546 0.9071363719630985 0.02175919490397315
-0.4440471086964179 0.8955172531880595 0.02951295479724117
-0.4702291501206372 0.881645750069606 0.03981604903835503
-0.4990789031438223 0.8649347874822868 0.05299114869230608
-0.530860549453733 0.8446185193520407 0.06932989110944247
-0.5657831480792178 0.8197306493855439 0.08905667750103813
-0.6039392070211043 0.789083335531041 0.1122716518535554
-0.6452246464543273 0.7512656230349484 0.1388708725896069
-0.6892353420852013 0.7046844594626134 0.1684471899812509
-0.7351478152427168 0.647676221257061 0.2001829217541655
-0.7816082462770382 0.5787153667920402 0.2327596906478585
-0.8266730996333331 0.4967320193858696 0.2643272351829316
-0.8678610909347751 0.4015102633976479 0.2925861159177807
-0.9023719641550427 0.2940764127665064 0.3150300013670973
-0.9274848821432441 0.1769237631729196 0.3293474994902267
-0.9410652114215273 0.05391294165359051 0.3339006777088241
-0.9420221145909961 -0.07021978927768111 0.3281211922678964
-0.9305386710395595 -0.1906361957724713 0.3126589556710794
-0.9079809053006949 -0.3031916033043243 0.2892153649014577
-0.8765373883505267 -0.4049829616310924 0.2601365172599697
-0.8387467135096728 -0.4945199331369833 0.2279341709944255
-0.7970765346108776 -0.5715649616132925 0.1948909762629087
-0.7536473437184122 -0.6367909732259937 0.1628279390156153
-0.7101127300835186 -0.6914064240958957 0.1330303247092862
-0.6676571924524342 -0.7368429144891284 0.106284489619606
-0.6270604468394448 -0.7745392513109528 0.0829707429651203
-0.5887859816030754 -0.8058166502107941 0.06317114935441129
-0.553068156865372 -0.8318223046328239 0.04676823042276806
-0.5199851689197015 -0.8535171300062417 0.03352510834370825
-0.4895160349470064 -0.8716870521382656 0.02314594271706357
-0.4615878670319287 -0.886962190071887 0.01532039137214529
-0.4361307427533242 -0.8998304254984637 0.009756053130601126
-0.4131635898211453 -0.9106357202874475 0.00619943406012308
-0.3929381252239335 -0.9195542124567948 0.004436225700295024
-0.3767894826927356 -0.9262893856858205 0.004202344336853369
0 0 0
0 0 0
-0.3218977584903317 0.9466901434930176 0.0126334988055222
-0.3334644320682357 0.9426413711964953 0.01512342071754539
-0.3499502949398499 0.9365632909789381 0.01959574092022862
-0.3693428501739291 0.9289211779680066 0.02629266338599232
-0.3912095196142312 0.9196135162061962 0.03558219462144333
-0.4156381609364437 0.908269277299428 0.04787315622920182
-0.4429060296982419 0.8943098357979153 0.06359376110944687
-0.473350878581211 0.8769393829069696 0.08316408150841562
-0.5072965618442969 0.8551092090777916 0.1069506376386251
-0.5449815133972398 0.8274765475302177 0.1351950936340697
-0.5864656629685098 0.7923786751198478 0.1679108733055146
-0.6315040564478847 0.7478516167592899 0.2047451733262167
-0.6793893656192084 0.6917337532337036 0.2448152456869114
-0.7287853656092722 0.6219020739671552 0.2865479039691448
-0.7776038206420359 0.5366765620443652 0.3275829145043263
-0.8230089728515965 0.4353785109576506 0.3648311702720293
-0.8616446033186023 0.3189288557592856 0.394782170995602
-0.8901302307637861 0.1902548077521424 0.4140909083855907
-0.9057487141101167 0.0542260217105121 0.4203317802133464
-0.9070976317263097 -0.08302539287611752 0.4126507853552274
-0.8944233324413701 -0.2152446650626463 0.3920161177127073
-0.8694850007402489 -0.3372229530706776 0.3609383789651918
-0.8350340012835783 -0.4455519735532207 0.3228028121983552
-0.7941603542475668 -0.5387785644966535 0.2811173957269534
-0.749749266725129 -0.6170769673553285 0.2389394345952164
-0.7041646320784655 -0.6817012289801333 0.1985840007069424
-0.6591492309051638 -0.7344486661096293 0.1615779943151821
-0.615869085503105 -0.7772549033743053 0.1287636777284976
-0.5750246850420609 -0.8119446177645024 0.1004616806326378
-0.5369756842232384 -0.8401096567001762 0.07663471323164776
-0.5018508847622414 -0.8630723521134323 0.0570245954018324
-0.4696348968825807 -0.8818962955616156 0.04125515125153396
-0.4402338376866294 -0.8974177971799778 0.02890441939112656
-0.4135317879082857 -0.9102797057656189 0.01955294506294561
-0.3894603277749443 -0.9209540793446218 0.01281549171637744
-0.3681301820171916 -0.929736660940223 0.008361243431079307
-0.3501679175590801 -0.9366682368043507 0.005919769773025003
-0.3377736380854668 -0.9412130020192478 0.005201369475702731
0 0 0
0 0 0
-0.2723987618096912 0.9620571518493238 0.01565091499286065
-0.2830532378103543 0.9589315102803824 0.01819953725949252
-0.2976849687429895 0.9543808508361343 0.02325620222179632
-0.3148445300094276 0.9486370459510159 0.03099478944068041
-0.3343233565984584 0.9415323552435912 0.04176981281015815
-0.3563092773972578 0.9326854697493721 0.05604920480289425
-0.3811499417349655 0.9215171045829237 0.07437034272165746
-0.4092651616840353 0.9072126339756842 0.09729986735161179
-0.4410906531746341 0.8886614418630147 0.12537893534371
-0.4770133667022202 0.8643869743556062 0.1590390095283966
-0.5172763231363551 0.8324862699432564 0.198473715837883
-0.5618382468435313 0.7906116716378886 0.2434562980366911
-0.6101826609120833 0.7360486063963969 0.2931033424309101
-0.661093070302784 0.6659630363633178 0.3456142164254653
-0.7124497629267124 0.5778923944370608 0.3980649642426118
-0.7611570872917135 0.4704976989424113 0.4463987049213856
-0.8033460083479241 0.3444510494008574 0.485786646006356
-0.8349553310439223 0.2031238426170578 0.5114589912415407
-0.85262456551664 0.0526143828513662 0.5198683265931194
-0.8545887304630123 -0.09917622413177331 0.5097471709902675
-0.8411504606155078 -0.2442059405604739 0.4825239488370427
-0.8144882724700645 -0.3759901869657911 0.4418599702554631
-0.777935075506801 -0.4906181159174337 0.3925695895377724
-0.7351115145261621 -0.58683468966868 0.3394644432227266
-0.6892582272131974 -0.6654426514760189 0.2865469836091212
-0.6428988837957728 -0.7284684415258883 0.236674364718684
-0.5977843148107137 -0.7784273966741749 0.1915847099153574
-0.5549984495711635 -0.8178258028392222 0.1521107398706144
-0.5151218974916797 -0.8488939825920601 0.1184417031436239
-0.4783904675491076 -0.873486124424639 0.09035790499878768
-0.4448232020156739 -0.8930779027117461 0.06741052318823475
-0.4143158537095835 -0.9088106481657836 0.04904670371581486
-0.386707278228071 -0.9215498267644774 0.03469002386563828
-0.3618307677756069 -0.9319402365632439 0.02378846286247869
-0.3395691422671595 -0.9404477214141608 0.01583922052558375
-0.3199508379353123 -0.9473771047985904 0.01039627856166829
-0.303403427847985 -0.9528360163008812 0.007063002899568394
-0.2916231437995194 -0.9565175734127166 0.005483954151226923
0 0 0
-0.1816729029453144 0.983190811107771 0.01818750364028556
-0.2121182010224533 0.9770726994742799 0.01829777956586967
-0.228094980569427 0.9734095296615716 0.02113214146910727