# OOMMF: rectangular mesh v1.0
# Segment count: 1
# Begin: Segment
# Begin: Header
# Title: 
# Desc: time = 2.4799999999999997e-09
# Desc: stepsize = 2.949903418794386e-14
# Desc: step = 15870
# meshunit: m
# valueunit: (none)
# valuemultiplier: 384000.0000000001
# xmin: 0
# ymin: 0
# zmin: 0
# xmax: 9.357999999999999e-08
# ymax: 9.357999999999999e-08
# zmax: 2.3395e-08
# ValueRangeMaxMag: 1
# ValueRangeMinMag: 0
# meshtype: rectangular
# xbase: 1.16975e-09
# ybase: 1.16975e-09
# zbase: 1.16975e-09
# xstepsize: 2.3395e-09
# ystepsize: 2.3395e-09
# zstepsize: 2.3395e-09
# xnodes: 40
# ynodes: 40
# znodes: 10
# End: Header
# Begin: Data Text
0 0 0
0 0 0
0 0 0
0 0 0
0 0 0
0 0 0
0 0 0
0 0 0
0 0 0
0 0 0
0 0 0
0 0 0
0 0 0
0 0 0
0 0 0
0 0 0
-0.9875363076144197 0.1570763117222861 0.009953564135558186
-0.9919657145525627 0.1260346092088732 0.0109223822396891
-0.9963918508403463 0.08408854515016585 0.01150635274432317
-0.9992118127953799 0.03792980917345212 0.01170823412114246
-0.9998872371689844 -0.009402871406963931 0.01170892633329046
-0.9983805418631371 -0.05566239252320932 0.01174698632247007
-0.9951370387444318 -0.09775491421566614 0.01209342241262041
-0.9915770243489683 -0.12887257762181 0.01291756634801504
0 0 0
0 0 0
0 0 0
0 0 0
0 0 0
0 0 0
0 0 0
0 0 0
0 0 0
0 0 0
0 0 0
0 0 0
0 0 0
0 0 0
0 0 0
0 0 0
0 0 0
0 0 0
0 0 0
0 0 0
0 0 0
0 0 0
0 0 0
0 0 0
0 0 0
0 0 0
0 0 0
0 0 0
-0.9303535541184337 0.3664532633422663 0.01242055252401291
-0.9413674917827276 0.3371103082201027 0.01356043902102296
-0.9550835711110534 0.2960094089468573 0.01392127898898397
-0.968835618004083 0.2473440160172403 0.01335975400631118
-0.9821291213256909 0.1878005212696146 0.01238358812648658
-0.9902344375537276 0.1388263752240151 0.01276699748620385
-0.9958459831602468 0.09008732666796918 0.01323069905255852
-0.9990973898649694 0.04028792556205806 0.0134643462117781
-0.9998587826459076 -0.01001993258417618 0.01349132005593654
-0.9981087113111961 -0.05998689262440475 0.01343774973614336
-0.9939475747906992 -0.1090327116990819 0.01341962545049694
-0.9872835731272721 -0.1584091534583969 0.01332990373708155
-0.9757870535757147 -0.2183760477860145 0.01230966398342542
-0.9634231493383226 -0.2677687701496819 0.01075737196317525
-0.9508013985241776 -0.3096426755166748 0.009905254330034658
-0.9405403737352341 -0.3395289260360907 0.01019380982578564
0 0 0
0 0 0
0 0 0
0 0 0
0 0 0
0 0 0
0 0 0
0 0 0
0 0 0
0 0 0
0 0 0
0 0 0
0 0 0
0 0 0
0 0 0
0 0 0
0 0 0
0 0 0
0 0 0
0 0 0
0 0 0
0 0 0
-0.8820385490581744 0.4710349027464513 0.01158094857906572
-0.896825757240118 0.4422053868900508 0.01256809277928232
-0.9182462543923066 0.3957862094937639 0.01330761695634627
-0.9353441194855999 0.3534408693300006 0.01452343041297284
-0.951259285332272 0.3080076243391813 0.01539725358848882
-0.9659106509902607 0.2583936089849593 0.01579104617490977
-0.9787661021845639 0.2043525110118449 0.01603023573092204
-0.988380262782909 0.1510949447067816 0.01657630312348755
-0.9950697505002338 0.09769303128902766 0.01709570931440639
-0.9988899649269647 0.04378392571582758 0.01737255931397914
-0.999794771206737 -0.01044098575454573 0.017360912537674
-0.99776380867001 -0.06461478841134653 0.01709711165290437
-0.9928114626476484 -0.1185306167616813 0.01661001280950077
-0.984878258314459 -0.1725242139841703 0.01581808738821576
-0.9736743696268736 -0.2274804885360116 0.01452064967992938
-0.9604423229681713 -0.2781757988773231 0.01299111890735776
-0.9457241759953656 -0.3247543027953808 0.01185013728916622
-0.9296769264083817 -0.3682008358632054 0.01135592239761051
-0.9094924660992341 -0.4155719491377489 0.01110896928545647
-0.8954315818345195 -0.4450566918850311 0.01126158344469836
0 0 0
0 0 0
0 0 0
0 0 0
0 0 0
0 0 0
0 0 0
0 0 0
0 0 0
0 0 0
0 0 0
0 0 0
0 0 0
0 0 0
0 0 0
0 0 0
0 0 0
0 0 0
0 0 0
-0.8452500862171261 0.5342337621030109 0.01210698885783903
-0.8661849833714695 0.4995612110516885 0.01273463758167771
-0.8866299654368776 0.4622637786788669 0.01412456409721917
-0.9078805545298944 0.4189343455375701 0.01571346032860678
-0.9274658645455534 0.3734990266391184 0.01747990853521725
-0.9454470008436904 0.3252148566859416 0.01911192262470165
-0.9615953709003564 0.2737062553557358 0.02047506879466206
-0.9754554441933079 0.2191315157615423 0.02163458327966
-0.9863586819383866 0.1630418055597258 0.02266980821693825
-0.9941029795532677 0.1058751768067109 0.02344595870214479
-0.998566383007361 0.04793155220567241 0.0238274008391761
-0.9996636291029817 -0.0104102112202727 0.02375407651341117
-0.9973652972269246 -0.06872418490784656 0.02322606932305957
-0.9917021543700748 -0.1266144037369851 0.02226274430701186
-0.982752166366578 -0.1837459011479497 0.02087159105398309
-0.9706777182226549 -0.2396256447756763 0.01908710852646417
-0.9560704474264998 -0.2926361092441001 0.01712913086430873
-0.9393802020397539 -0.3425341331502521 0.01533635037275106
-0.9208781276576139 -0.3896026317741405 0.01390191772634991
-0.9005940759104334 -0.4344720805138769 0.01281880216616825
-0.8809350306328387 -0.4730798459138487 0.01220373688867677
-0.8608980318194478 -0.5086354827546654 0.01202183398358587
0 0 0
0 0 0
0 0 0
0 0 0
0 0 0
0 0 0
0 0 0
0 0 0
0 0 0
0 0 0
0 0 0
0 0 0
0 0 0
0 0 0
0 0 0
0 0 0
-0.7726341624595393 0.6347104764128692 0.01338140994790662
-0.7928570679099439 0.6092464264586319 0.01401648003719177
-0.8235989899867587 0.5669974834673166 0.01409104093103736
-0.8491352830899321 0.5279510479452529 0.01539356960841548
-0.8730111071476052 0.4873865722437684 0.01749102608145572
-0.8961642723702132 0.4432717402316025 0.01999403008930914
-0.9179738552564977 0.3959918847039532 0.02268101219374804
-0.9380906844024565 0.3454632669643382 0.02531795836272026
-0.9561206184337914 0.2916573636654823 0.02773707312396479
-0.9715824331510398 0.2348119897966502 0.02984803243167655
-0.9839501036701345 0.175628847681533 0.03157057727675597
-0.9928581829658205 0.1147098479285383 0.03277620029869531
-0.9980569750041963 0.0526334390570548 0.03334660010405173
-0.9993981688343595 -0.009996380305194889 0.03321705151458106
-0.9968386255949839 -0.07255441969125988 0.0323822591115468
-0.9904439389488133 -0.1344135908500246 0.03088349711999177
-0.980390459886881 -0.1949490436922944 0.02879959246672416
-0.9669813412308474 -0.253490372453713 0.02626245960813197
-0.9506902170869126 -0.3092513871047313 0.02348809717788895
-0.931986124183128 -0.3619005762043305 0.02073251728768583
-0.9112882268424314 -0.4113671120680857 0.01818974236045035
-0.8890007743340201 -0.4576274787060078 0.0159597608595552
-0.8658029466249013 -0.5001866944842146 0.01409000626658518
-0.8409368678010811 -0.5409898465920338 0.0124567354163911
-0.8111447939700877 -0.5847485778974761 0.01064067019048057
-0.7913927905403283 -0.6112282869675327 0.009870779681831129
0 0 0
0 0 0
0 0 0
0 0 0
0 0 0
0 0 0
0 0 0
0 0 0
0 0 0
0 0 0
0 0 0
0 0 0
0 0 0
-0.7261228194306728 0.6874510466627806 0.01251836827615272
-0.7510065182710299 0.6601550633215224 0.01358314710887442
-0.7762345244989148 0.6302634256164432 0.01509891738400466
-0.8040439837420863 0.5943298883285573 0.016889524786678
-0.8310002370889168 0.5559321810204628 0.01944263521220735
-0.857152042134417 0.51456296688336 0.02270087612829452
-0.8825122584305979 0.4695460231562635 0.02643190984137722
-0.9066592475196155 0.4207674087076246 0.03039402337031211
-0.9291166280358213 0.3681888860688019 0.03434000120500103
-0.9493591422765959 0.3118814460370191 0.03804185318440029
-0.9668163438562936 0.252112197978839 0.04129887265564284
-0.9809157459200937 0.1894070529215514 0.04392343007550886
-0.9911750626742925 0.1244195840104274 0.04573578738016919
-0.9972347849090051 0.05789536776273094 0.04659302693652383
-0.9988783298141183 -0.009352870708228092 0.04641773408161918
-0.9960457228802541 -0.07647877499106046 0.04520967714790869
-0.9888383474720016 -0.1426394184218503 0.04304322108202963
-0.9775140285885828 -0.2070302999419573 0.04005969069353734
-0.9624737524812996 -0.268914168369326 0.03646156654340101
-0.9442351131166576 -0.3276639589360786 0.03250201796669956
-0.9233506234280712 -0.3829025044949204 0.02844816806947037
-0.9003641641184319 -0.4344452681836938 0.0245291851498452
-0.8758027520480464 -0.4822160931599324 0.02090882595075896
-0.850165629907349 -0.5262182730550131 0.01768419710475142
-0.823562970592765 -0.5670296212712147 0.01488092972372912
-0.7960716436464469 -0.6050720729624964 0.01255884958550091
-0.7710706159648075 -0.636651190530015 0.01119673132507524
-0.7466609544138375 -0.6651152114698574 0.01091671311445278
0 0 0
0 0 0
0 0 0
0 0 0
0 0 0
0 0 0
0 0 0
0 0 0
0 0 0
0 0 0
0 0 0
-0.673259695578613 0.7393070663634183 0.01210140217120073
-0.6999126581541795 0.7141079118343024 0.01312102172857382
-0.726504357797595 0.6869973229131547 0.01503650262732956
-0.7537476066064833 0.6569258389785364 0.0176914560549317
-0.7820676989853909 0.6228388446063632 0.02102112873054316
-0.8105260106210399 0.5851635363141903 0.02512412933839529
-0.8387653291611097 0.5436688442819229 0.02994846163683587
-0.8664661856976039 0.4979853978990479 0.03531136533712368
-0.8931414923181119 0.4479066353038257 0.0409624309652294
-0.9182040023778122 0.3933557328967338 0.046611987885511
-0.9409950741976479 0.3344086717357603 0.05195296530215352
-0.9608116658780178 0.2713459828665138 0.05667715849364048
-0.9769559555473203 0.2046904755911845 0.06048859498183417
-0.9888083560646491 0.1351790142990278 0.06312423520224801
-0.9958884405404234 0.06372334251973061 0.06438594268996914
-0.9979015484373758 -0.008643337989792072 0.06417002676235477
-0.9947672720324217 -0.08083271377110168 0.06248317275533027
-0.9866263364846199 -0.1517732524175688 0.05944200539626651
-0.9738249846066749 -0.2204796800284022 0.0552594792807731
-0.956878882250345 -0.2861128028616466 0.05022219371933338
-0.936419833930747 -0.3480278701788055 0.04465978280193309
-0.9131277600355739 -0.4058128330176116 0.03890550617373841
-0.8876798745121235 -0.459258545499287 0.03325701087018354
-0.8607189007309727 -0.5083125329589581 0.02795250903431146
-0.8328188303399955 -0.5530606359917886 0.02316740700811086
-0.804413755856219 -0.5937645284498628 0.01903139889767904
-0.7759817077192134 -0.6305603537701818 0.01568532876275192
-0.7485635702048457 -0.6629288827902415 0.01333708081465856
-0.7219429236609909 -0.6918477680289218 0.01204495119207238
-0.6956670779920169 -0.7182695566811395 0.01166878498934169
0 0 0
0 0 0
0 0 0
0 0 0
0 0 0
0 0 0
0 0 0
0 0 0
0 0 0
-0.619557330972595 0.7848691624225748 0.01136272485803928
-0.6449478612839794 0.764122678911746 0.01260110304525389
-0.6712652987097568 0.7410716386946697 0.01468758218690253
-0.6986790453164289 0.7152151685472652 0.01774413468247604
-0.7271899002997255 0.6860909349628834 0.02177332918575428
-0.7567286669572987 0.653181137776877 0.02676052797561031
-0.7868787455455951 0.6162408031222936 0.03269728392054209
-0.8172635670009321 0.5749091604187738 0.03949328195393573
-0.8474523816411048 0.5287908567550029 0.04695413361067109
-0.8768777423484739 0.477580341173254 0.05479454989943011
-0.9048416651855542 0.4211125549258627 0.06265602148273287
-0.9305397650530591 0.3594132280336378 0.07012757780956919
-0.9531003294893629 0.2927557103728858 0.07677145284110502
-0.971646939694537 0.2217038111367771 0.08215622136922059
-0.985382508070463 0.1471142636811321 0.08589939586703571
-0.9936759913301312 0.07010036411161501 0.0877152393002472
-0.9961359154491076 -0.008041753706338174 0.08745609269624294
-0.9926565957711507 -0.08593508244236969 0.08513544783257151
-0.9834279143387712 -0.1622355210479599 0.0809269609561057
-0.9689072343109749 -0.2357386026431644 0.07514041870860862
-0.9497600851030861 -0.3054621961711531 0.06818084375595564
-0.9267822559848579 -0.3706947026564283 0.06049865629977778
-0.9008186631552448 -0.4310050652180398 0.05253922218295826
-0.872697557663447 -0.4862106384890543 0.0447010947105301
-0.8431842691277828 -0.5363284039465063 0.03731127732521643
-0.8129481965352988 -0.581530421982605 0.03062022303540682
-0.7825471112893324 -0.622096644162084 0.02481499415664077
-0.7524974973396967 -0.658289980903788 0.02004538698012255
-0.7233651959395903 -0.6902699804605786 0.01643616069006284
-0.6954074274182303 -0.7184785029238719 0.01404103727754982
-0.6688366016253464 -0.7432983725126644 0.0128502819533737
-0.6437197891664217 -0.7651533187114529 0.01285425611953822
0 0 0
0 0 0
0 0 0
0 0 0
0 0 0
0 0 0
0 0 0
0 0 0
-0.5931188452922272 0.8050205834128297 0.0123245949581157
-0.6135434187946226 0.7895327342292415 0.01423147337078681
-0.6391958880732032 0.7688480878579761 0.01735610749685224
-0.6671222313975881 0.7446316350749554 0.02171765228335899
-0.6966395246067251 0.716899998690414 0.02734528539620254
-0.7274905584702107 0.685262830752966 0.03423945275748557
-0.7593824493025843 0.649264116275877 0.04236039432903931
-0.791962517050823 0.6083864476344545 0.05158780787408597
-0.8247625001397093 0.5621038073313379 0.0616938258410805
-0.8571495652327565 0.5099630799657535 0.07233450001996523
-0.8883158456534179 0.4516601868417207 0.08305440375533335
-0.9172962331199078 0.3871199805121414 0.0933045625481756
-0.9430149572513344 0.3165775593635716 0.102476530521225
-0.9643656137505372 0.2406426280867054 0.1099549387843603
-0.9803209296045868 0.1603215901529514 0.115186208853435
-0.9900545447890743 0.07698126976175911 0.1177534816825625
-0.9930496545685117 -0.007749732418742977 0.1174407306210118
-0.9891688082936501 -0.09212881614484249 0.1142687618497254
-0.9786676179727262 -0.1744678661202762 0.1084926597656577
-0.9621500617351461 -0.2532876192043775 0.1005616261843068
-0.940478681020946 -0.327428367062734 0.09105226514333765
-0.9146630355995712 -0.3961016110892889 0.08059184202043253
-0.8857512504473835 -0.4588839000225004 0.06978745324939147
-0.8547436682912469 -0.5156663760864653 0.05917305205813338
-0.8225350765166668 -0.5665839524285484 0.04918000356003231
-0.7898837037296856 -0.6119422086619054 0.04013063468552193
-0.7574086105839098 -0.652144289787025 0.03224937071521514
-0.7256275628183502 -0.6876081992087137 0.02568276580219346
-0.6950085087585878 -0.7187087605595051 0.02051560986623186
-0.6659987980760282 -0.7457641234838693 0.01677715964103907
-0.6394813207137412 -0.7686704719825432 0.0144687926359682
-0.6185974562105936 -0.7855905608770771 0.01358888629070024
0 0 0
0 0 0
0 0 0
0 0 0
0 0 0
0 0 0
0 0 0
-0.5169013577535777 0.8559286782602097 0.01410971595170932
-0.5494020018130272 0.8354331714994281 0.01445186362531588
-0.5756778013270165 0.8175023392937666 0.01688177444792549
-0.6027065723954418 0.7976845795528024 0.02107365974401024
-0.6313678176985582 0.7750164874509161 0.02690953276821532
-0.6617536727577829 0.7489322925163436 0.03438746599850838
-0.6938038323941322 0.7188483466119743 0.04351202969806284
-0.7273442059254939 0.6841260283936664 0.05424005329016873
-0.7620754073578939 0.6440709129145105 0.06643592881693085
-0.7975308206303782 0.5979723518351184 0.07983518388162038
-0.8330323123489148 0.5451765039205981 0.09401992424764719
-0.8676670076249818 0.4851816915428313 0.1084098246043485
-0.9002954728610341 0.4177522769120311 0.1222746771851808
-0.929601599038685 0.3430398093469612 0.1347759484029694
-0.9541924768693006 0.2616860485502156 0.1450418183842251
-0.9727449929117744 0.1748727053194039 0.1522718480197323
-0.9841774083481328 0.08428640841900696 0.1558545163059963
-0.9878081171394915 -0.00801383151892456 0.155469939916752
-0.983459387634929 -0.0998092587285045 0.1511480887897571
-0.9714765031176739 -0.1889677496950016 0.1432640689966006
-0.9526586825020594 -0.2736652021956764 0.132471852710827
-0.9281251989284076 -0.3525339024419338 0.1195970850111499
-0.8991556578511731 -0.4247174539135853 0.1055186585177459
-0.8670423380482083 -0.4898413671883059 0.0910660146431555
-0.832979175099467 -0.5479276035355169 0.07694826271226671
-0.7979948540494384 -0.5992863048371714 0.06371921017420062
-0.7629258791923458 -0.644409540058656 0.05177303873616966
-0.7284225627286113 -0.6838785420012384 0.0413607289362948
-0.6949801043716245 -0.7182888452065166 0.03261578420786875
-0.662973712262058 -0.748205583080908 0.02557855148408381
-0.6326705641765542 -0.7741572574729291 0.02021133163631575
-0.6041983790839635 -0.7966652239962755 0.01639632846934021
-0.5769465985997788 -0.8166640669615565 0.01387170133600506
-0.5444448135203915 -0.8387086442901919 0.01215133834826339
0 0 0
0 0 0
0 0 0
0 0 0
0 0 0
-0.4531468031301037 0.8913318479002703 0.01362026914770284
-0.4813063365720986 0.876432477544858 0.01450250599471632
-0.5086636928211831 0.86080928067443 0.01638993319958546
-0.5350390109250776 0.8445895012734568 0.02004572590273458
-0.5622962372419044 0.8265386274767362 0.02562886795136173
-0.5912295340308055 0.8058197158159819 0.03319975439617364
-0.6221282159121225 0.7817432217843725 0.04282543823696727
-0.6550741652036635 0.7535924537227751 0.05455503436723421
-0.6900036236681756 0.7205692332052531 0.0683738216189447
-0.7266925357608875 0.6817889523177814 0.08415333009948303
-0.7647088253922922 0.6363155301834621 0.1016019606822597
-0.8033560952569608 0.5832372050492889 0.1202220730971723
-0.8416306212223092 0.5217837041178036 0.1392826749386069
-0.8782121461065138 0.4514818834817116 0.1578212131457518
-0.9115102202458407 0.3723339144033539 0.1746899383835652
-0.9397837029795668 0.2849818250676273 0.1886582916151233
-0.9613346135107684 0.1908042262747425 0.1985686483355258
-0.9747489896779941 0.09189003667125459 0.2035205844190817
-0.979128361820911 -0.009139476104629986 0.2030372405605229
-0.974243652156671 -0.1094379368712512 0.1971614673454093
-0.9605619983048924 -0.206295637837086 0.1864477332173853
-0.93914077776908 -0.2974579904416038 0.171852679506982
-0.9114289531665525 -0.3813237368974897 0.1545621913931586
-0.8790394375098165 -0.4569965462704394 0.1358080409965287
-0.8435500326024744 -0.5242138947196211 0.1167181865831089
-0.8063653876512424 -0.583204191398456 0.09822287276054345
-0.7686454435025253 -0.6345238042687783 0.08101681306421896
-0.7312886732667968 -0.6789095442088743 0.06556452648945073
-0.6949526137981825 -0.7171632907771774 0.05213136231409028
-0.6600936742886089 -0.7500731371584681 0.04082438091896912
-0.6270056025295925 -0.7783723098500321 0.03163102361966011
-0.5958322959317035 -0.8027366720172326 0.02444811901663915
-0.566511742829817 -0.8238323373953087 0.01909777729749502
-0.5384936792509862 -0.8424899453268263 0.01533784306662882
-0.5101770882421202 -0.8599720463686281 0.01293901454305404
-0.4818537267647268 -0.8761694535517558 0.01200311067019253
0 0 0
0 0 0
0 0 0
0 0 0
-0.4235333942038056 0.9057780020067109 0.01362626415910927
-0.4426463069965065 0.8965646513214774 0.01536466410798564
-0.4661410025947956 0.8845152508500993 0.01858323743334419
-0.4911727245210083 0.8707407284164865 0.02366302101033417
-0.5177984133836158 0.8549451241924747 0.03088102519223302
-0.5464109398384968 0.8365401935089367 0.04044242164906461
-0.5773078688001572 0.8148356431429225 0.05252141739595322
-0.6106659704818281 0.7890275477276263 0.0672502893853595
-0.646531557640517 0.7581731073061022 0.08467871239417686
-0.6847807796468617 0.7211863287714364 0.104716584261581
-0.7250534631444259 0.6768688045403692 0.1270672932833836
-0.7666735876178196 0.6239891007180608 0.1511595588584686
-0.8085762829200709 0.5614231437255107 0.1760921587934147
-0.8492692726165783 0.4883602459909661 0.2006139893550552
-0.8868639932956652 0.4045592366444444 0.2231682805448167
-0.9192100473551349 0.3106060952865899 0.2420263258659839
-0.9441453255353599 0.2080899500695722 0.255515512150968
-0.959830353867799 0.09960226775973867 0.2623072245500157
-0.9650840348778453 -0.01149983512268633 0.2616879046040304
-0.9596116706605916 -0.1215397766832419 0.2537193808438273
-0.9440427482961143 -0.2270561368887519 0.2392254168993654
-0.9197694955235071 -0.3252624287144771 0.2196097164771912
-0.8886541871623374 -0.4143086123424032 0.1965759633774112
-0.8527084475460144 -0.4933132272147197 0.1718440087365978
-0.81383056423575 -0.5622189841163151 0.1469340893562103
-0.7736413219541284 -0.6215613340296774 0.123047198279017
-0.733416298628764 -0.6722298149944461 0.1010327112286699
-0.6940892866310167 -0.7152702485196301 0.08141580784290368
-0.6562966388643621 -0.7517447798123055 0.06445547176375942
-0.6204367928380364 -0.7826474967634531 0.05021037644503093
-0.5867252639846809 -0.8088656176823599 0.03859892658404089
-0.5552310875567915 -0.8311746394442269 0.02944754922334276
-0.5258894132258325 -0.850254534418132 0.02252890939203426
-0.4985321860811862 -0.8666924666731306 0.01760192185976562
-0.4733136532022946 -0.8807749643266912 0.01447922330834359
-0.453239258614753 -0.8912925762200216 0.01310412245919326
0 0 0
0 0 0
0 0 0
-0.3470649895928927 0.9377509003637778 0.01300545523264938
-0.3759530596379492 0.9265311104154227 0.01412084916808654
-0.397665332222823 0.9173779389516445 0.01673322063871202
-0.4198541437998741 0.9073448343132358 0.02116245683187192
-0.4434666463244061 0.8958624768265215 0.02770841410174136
-0.4689153610126862 0.882480325351767 0.03669958546606335
-0.4965916842119949 0.8666309332752697 0.04845126068461442
-0.5268430774230201 0.8476055325165618 0.06325530032144749
-0.5599451545672106 0.8245255983397348 0.08135700067728782
-0.5960677119549987 0.796312210612936 0.1029084349967041
-0.6352166080401804 0.7616704226032631 0.127898507424025
-0.6771473586939988 0.719107776404545 0.1560623610235702
-0.72125649520852 0.6670105799299295 0.1867778209024311
-0.7664686869987266 0.6038040431671782 0.2189667310470147
-0.8111536972714697 0.5282152031832025 0.2510346161965559
-0.8531245950996406 0.4396307327391321 0.2808972126371635
-0.8897749809032074 0.3384901518124145 0.3061452277673211
-0.9183898904879899 0.2265907302528309 0.3243711608835565
-0.9366005223970327 0.1071435698688771 0.3336161220345287
-0.9428654034095334 -0.01553555682191544 0.3328114744530454
-0.9368058901936407 -0.1366753037885309 0.3220474894061625
-0.9192598024924515 -0.2518420319117138 0.3025508328927845
-0.89203876070361 -0.3576036768486573 0.2763810046053957
-0.8575030272599682 -0.4518670966034643 0.2459770014597812
-0.8181184594318999 -0.5338589828793676 0.2137212500800545
-0.7761204840254019 -0.6038589804817306 0.1816351451887544
-0.7333304809346168 -0.6628376654331624 0.1512370160222611
-0.6911056784872226 -0.712118523733076 0.1235319769085692
-0.6503758642197029 -0.7531229633454962 0.09908096347014377
-0.6117210010680008 -0.7872087181059247 0.07810154281695679
-0.5754568597406259 -0.8155861404408967 0.06056938251442499
-0.5417094666223251 -0.839289412655015 0.04630481159615428
-0.5104700961851705 -0.8591812676268632 0.03504040895592224
-0.4816324824055676 -0.8759733815215025 0.0264723772569455
-0.4550277559555107 -0.8902458152570496 0.02030097848387071
-0.4304570157903767 -0.9024646868963817 0.01625565937937986
-0.4072049804886871 -0.9132285528958597 0.01406108249536061
-0.3779863468084007 -0.9257143915680349 0.01338607000810584
0 0 0
0 0 0
-0.3169597814196572 0.9483518771331332 0.01285356372625798
-0.3322830825146594 0.9430628231250839 0.01484805421265996
-0.3504205712042711 0.9364104181299563 0.01846488815433572
-0.3702748834111776 0.9286102534344988 0.02407297096650129
-0.391886832815755 0.9194539639602588 0.03207987567624008
-0.4155243028683303 0.9085696511591987 0.04290387765971026
-0.4415551199495603 0.8954235908571059 0.05697077305860335
-0.4703740088608834 0.8792997145709718 0.07470143066600661
-0.5023540762395582 0.859262281818711 0.09648167250416802
-0.5377977152867027 0.8341110246726321 0.1226067532886084
-0.5768658315333953 0.8023447973341724 0.1531947734097659
-0.6194738081016421 0.7621570393466637 0.1880660746928526
-0.6651528794308457 0.7114967302320335 0.2265922546204505
-0.7128905148038137 0.6482382283394015 0.2675337609015855
-0.7609874515182514 0.5705017975025268 0.3089106629401809
-0.8069997400866481 0.4771364869114407 0.347983034583427
-0.8478563797855744 0.3683019770936997 0.3814357258120577
-0.8802251233039239 0.2459741342237345 0.4058330415299811
-0.9011112886357775 0.1141115670581533 0.4183025170336659
-0.9085318103173838 -0.02173654964663702 0.4172498916127791
-0.9020008742939037 -0.1553715642386873 0.4028077702813784
-0.8826065298561944 -0.2811208736108801 0.3767980465388078
-0.8526550150283523 -0.3947912538081717 0.3422269587036814
-0.8150683672535071 -0.4940883159192858 0.3025562638167413
-0.7727905587851127 -0.5784905123888592 0.2610430602959361
-0.7283757081119053 -0.6487880629018455 0.2203244817730226
-0.6837999227587576 -0.7065380517626353 0.1822680637044681
-0.6404474723622334 -0.7536040353949803 0.1480134891867183
-0.5991946867862484 -0.7918431084447271 0.1181110449353536
-0.5605281031798406 -0.8229324350619401 0.09268469597854384
-0.5246584393031373 -0.8482982356431293 0.07157950455786463
-0.4916134885835542 -0.8691077582883947 0.05447827388627575
-0.4613076097401375 -0.8862930465611722 0.04098688586799618
-0.4335963173263871 -0.9005842932264674 0.03069469652526699
-0.4083351375318619 -0.912536776563832 0.02321738304214274
-0.3854674761503721 -0.9225414032209213 0.01822592037277943
-0.3651697262624536 -0.930812646084784 0.01545603151027402
-0.3487505271715691 -0.9371012686940821 0.01463837455093993
0 0 0
0 0 0
-0.2747466602146197 0.9614161000825561 0.01390522214709728
-0.2853931558536663 0.9582729865757029 0.01623668042325321
-0.3002532664834771 0.9536378077327337 0.02056471805561916
-0.317404325174133 0.9478998855503673 0.02720847908930425
-0.3364827266742716 0.9409779142117692 0.03660518563694452
-0.3576431992104268 0.9325589975725758 0.04924487897195822
-0.3812393133061298 0.9221416445008017 0.06566104984865311
-0.407707370971888 0.9090144536261157 0.08641425087336564
-0.4375074826051795 0.892205394141418 0.1120568486502932
-0.4710703935316556 0.8704159436693688 0.1430691068822768
-0.508722734280482 0.8419555558261383 0.1797554495410028
-0.5505729271106712 0.8047020909157163 0.2220900646329348
-0.5963482277466989 0.7561312138906926 0.2695076597122207
-0.6451888094714108 0.6934784148177758 0.3206541568648186
-0.6954346256110796 0.6141083016377319 0.3731510087897358
-0.7444872228192377 0.5161395367587152 0.4234840654067126
-0.7888750520689999 0.3992742030106206 0.4671790481532381
-0.8246508992897789 0.2655987568521895 0.4994078440104136
-0.8481427725464009 0.119944128722147 0.5160108946159842
-0.8568630038956105 -0.03059077301994715 0.5146357907890123
-0.850189873788196 -0.1779886148909242 0.4954767718846373
-0.8294776077713027 -0.3150396566998224 0.4612124379420554
-0.7975566932296216 -0.4366922647440118 0.4161768698490778
-0.7579141469177395 -0.5405457671308322 0.3652073651213713
-0.7139319352335205 -0.6265292958690232 0.3126695272513547
-0.6684104257180402 -0.6961515161801854 0.2619171038925423
-0.6233989131097455 -0.7517155299584425 0.2151686714019614
-0.580237727189525 -0.795720478937477 0.1736464780680724
-0.5396991542017663 -0.8305001183341491 0.137820087073191
-0.5021474257478744 -0.8580553067167707 0.1076524659725498
-0.4676776541927121 -0.8800121696515433 0.08280213182029095
-0.4362217054037592 -0.8976471736447783 0.06277081632555358
-0.4076251451752637 -0.9119388198865627 0.047003508430199
-0.3817093163968882 -0.9236212853026952 0.03495309874126976
-0.3583439915382096 -0.9332241054716865 0.02612188153700605
-0.3375821239628738 -0.9410816682950537 0.02008987754350054
-0.320004769062335 -0.9472716565640493 0.01653349472322059
-0.307799470851642 -0.9513301857389675 0.01517772859521929
0 0 0
0 0 0
-0.2249099600779144 0.9742532829361934 0.01568599839983363
-0.2342947518310373 0.9719984722191636 0.01802607189722362
-0.246872275055894 0.9687789604422501 0.02283430780995652
-0.2613003404671957 0.9647797882288982 0.03036597267879552
-0.2774193192917929 0.9598718883385483 0.04104240808075393
-0.2954527303263474 0.9537492648804716 0.05540779622639821
-0.3157865442659471 0.9459322648878139 0.07410134077586726
-0.3388957077660479 0.9357235418355304 0.09783226723591153
-0.3653060305280216 0.9221365410864286 0.1273408954461084
-0.395552943683117 0.9038037989388223 0.1633296108100823
-0.4301146353375966 0.8788760592518127 0.2063450337236388
-0.4692999820319633 0.844937137748964 0.2565906469795549
-0.5130747738049837 0.7989844518934023 0.3136528688176852
-0.5608214547691641 0.7375600225105848 0.37614426629258
-0.6110592252585714 0.6571481795895521 0.4413194911722478
-0.6612110604712749 0.5549457087288714 0.5048120381625839
-0.707580632986433 0.4299919270060697 0.5607464583322171
-0.7457359811116113 0.2843740078157362 0.6025025063469177
-0.7713857532872506 0.1238934362903251 0.6241910253036608
-0.7815341411178386 -0.04247933592928931 0.6224145662548459
-0.7753898402309328 -0.2045000166961457 0.5974532105846648
-0.7545238829411531 -0.3531338059640899 0.5531638321118987
-0.7222141713076285 -0.4824228973367339 0.495655968276047
-0.6823972854161044 -0.5900178901832601 0.4315238511605418
-0.6387511885199098 -0.6765391491634145 0.3664583179757899
-0.5941824394681218 -0.7444281682183224 0.3045881333716477
-0.5507009897254623 -0.7968724445101163 0.24844059067686
-0.5095297208145352 -0.8370688991749445 0.199236346183892
-0.4713006854560473 -0.8678362258013009 0.1572766641164958
-0.4362482700490136 -0.8914777051986468 0.1222904248622809
-0.4043627227221098 -0.9097867846336025 0.09369522388474381
-0.3754991960186921 -0.9241165712126785 0.07077369991344011
-0.3494517564216901 -0.9354664092962105 0.05278320767298834
-0.3260076631800736 -0.9445615505006341 0.0390189808132548
-0.3050026721040521 -0.9519145094433743 0.02884678007278837
-0.2864167871790953 -0.9578589833239658 0.02171617110778305
-0.2706286305978737 -0.9625307985183147 0.0171640963762847
-0.2592877285727856 -0.9656860210076885 0.01484529022629021
0 0 0
-0.1344847328923825 0.9907775563146609 0.01654359459164043
-0.1643816773892859 0.9862512792598013 0.01694338505403785
-0.1788529565234743 0.9836809253705621 0.0195820582402919
-0.1905235847159178 0.9813661799721464 0.02492357265466895
-0.2022903400743997 0.978760087068269 0.03327627194709683
-0.2150630053369901 0.9755579186602724 0.04510710669793035
-0.2293460994693163 0.9714293524175641 0.06103589042360212
-0.2455979386425685 0.9659130450888304 0.08181467998925117