# OOMMF: rectangular mesh v1.0
# Segment count: 1
# Begin: Segment
# Begin: Header
# Title: 
# Desc: time = 1.5e-09
# Desc: stepsize = 2.992699240722064e-14
# Desc: step = 9598
# meshunit: m
# valueunit: (none)
# valuemultiplier: 384000.0000000001
# xmin: 0
# ymin: 0
# zmin: 0
# xmax: 9.357999999999999e-08
# ymax: 9.357999999999999e-08
# zmax: 2.3395e-08
# ValueRangeMaxMag: 1
# ValueRangeMinMag: 0
# meshtype: rectangular
# xbase: 1.16975e-09
# ybase: 1.16975e-09
# zbase: 1.16975e-09
# xstepsize: 2.3395e-09
# ystepsize: 2.3395e-09
# zstepsize: 2.3395e-09
# xnodes: 40
# ynodes: 40
# znodes: 10
# End: Header
# Begin: Data Text
0 0 0
0 0 0
0 0 0
0 0 0
0 0 0
0 0 0
0 0 0
0 0 0
0 0 0
0 0 0
0 0 0
0 0 0
0 0 0
0 0 0
0 0 0
0 0 0
-0.9872588722285457 0.157235848158267 0.02442963896520373
-0.9918314393647008 0.1250386765855007 0.02521359247493444
-0.9963456759289638 0.08149748808236947 0.02556273643254757
-0.9991113608681286 0.03356772917915891 0.02548913772552075
-0.9995616783366591 -0.01557282014027975 0.02517813483321224
-0.9976672260818742 -0.06356829332490289 0.02488328928934758
-0.9939255102472927 -0.1071984153856868 0.02491143950992013
-0.9899038315336837 -0.1394260633993962 0.02551033437412656
0 0 0
0 0 0
0 0 0
0 0 0
0 0 0
0 0 0
0 0 0
0 0 0
0 0 0
0 0 0
0 0 0
0 0 0
0 0 0
0 0 0
0 0 0
0 0 0
0 0 0
0 0 0
0 0 0
0 0 0
0 0 0
0 0 0
0 0 0
0 0 0
0 0 0
0 0 0
0 0 0
0 0 0
-0.9269048136546164 0.3742906365071375 0.02745880272302862
-0.9385446277871754 0.343974582185027 0.02855640843082265
-0.9530627231373617 0.3013918641163608 0.02888580984603535
-0.9676140585747502 0.2508468018647236 0.02826509583814708
-0.9816009255978263 0.1890046926457635 0.02714496313076823
-0.9900310990673503 0.1381631640727665 0.0273744949340739
-0.9957775761790185 0.08754023196278764 0.02763560324907261
-0.9989774114691055 0.03580327149010448 0.02760900442049533
-0.9994915661006909 -0.01644323307112076 0.02731719933955297
-0.9973035744817996 -0.06828143162264486 0.02689286934091026
-0.992532600102019 -0.1190747268394131 0.02646218363711158
-0.9850871812024499 -0.1700935808302213 0.02591175777449622
-0.972412192361769 -0.2320021777317694 0.02427998504723897
-0.9588805604126598 -0.2829461061550591 0.02212627113621383
-0.9451363672415426 -0.3260168745497499 0.0207423437989093
-0.9340000614506287 -0.3566745278069454 0.02066800483631994
0 0 0
0 0 0
0 0 0
0 0 0
0 0 0
0 0 0
0 0 0
0 0 0
0 0 0
0 0 0
0 0 0
0 0 0
0 0 0
0 0 0
0 0 0
0 0 0
0 0 0
0 0 0
0 0 0
0 0 0
0 0 0
0 0 0
-0.8757792658175458 0.4819794903080136 0.02657909867748083
-0.8914300198843423 0.452318254591808 0.02758108431553984
-0.9141010316341842 0.404490092173184 0.02840896511752732
-0.9321715624622453 0.3607949273725924 0.02971865607496114
-0.9490055221590682 0.3137626845609033 0.03068381802724414
-0.964494191502875 0.2622612647216077 0.03114455945808093
-0.9780278401952341 0.206096621804243 0.03139627818586496
-0.9880617996317491 0.1507214876180692 0.03188907773306079
-0.9949375240471846 0.09517376725567829 0.03226882813520902
-0.9987129470008602 0.03909624233970798 0.0323099570994981
-0.9993397153724928 -0.01727457098284493 0.03196439388731134
-0.9968037915296959 -0.07351352836447982 0.03127238941025959
-0.9911347435307868 -0.1293664565459208 0.03026945798843192
-0.9822836444872272 -0.185161986920189 0.02887698690407351
-0.9699440548125544 -0.2418372752104701 0.02689354667119284
-0.9554870303624083 -0.2940006064166678 0.02466126995629604
-0.9395102407100084 -0.3417583743545815 0.02284121624466086
-0.9221946408419186 -0.3861166369304582 0.02170223693440304
-0.9004821783698771 -0.4343968390665053 0.02076614184843783
-0.8853786572716373 -0.4644190455892251 0.02048373359193903
0 0 0
0 0 0
0 0 0
0 0 0
0 0 0
0 0 0
0 0 0
0 0 0
0 0 0
0 0 0
0 0 0
0 0 0
0 0 0
0 0 0
0 0 0
0 0 0
0 0 0
0 0 0
0 0 0
-0.8368743436420343 0.5467309907798913 0.02695471525637529
-0.8589949035684937 0.5112333541649154 0.02771665983923499
-0.8805807588411186 0.4729892437605304 0.02930362512797324
-0.9030394535339096 0.428426383309908 0.03115412404753974
-0.9237457440607615 0.3815639212953443 0.0332080456418314
-0.942768133755289 0.3315941276040409 0.03512236487032711
-0.9598426848886488 0.2781237966775404 0.03673110381434123
-0.9744507432553776 0.22135236181919 0.03806416800756623
-0.9858595159361546 0.1629319997420809 0.03916858815654538
-0.9938450227183504 0.1033509851169353 0.03988288722397357
-0.9982734131183852 0.04296153869158107 0.04005619620259618
-0.999056243989012 -0.01779138547964175 0.03962433531659403
-0.9961738266982229 -0.07841098322233689 0.03859306558858868
-0.9896795944585528 -0.1384400699318443 0.03699523414738817
-0.979681928962006 -0.1975050489871699 0.03485790713537098
-0.9663789193716286 -0.2550924152665261 0.03224350892215751
-0.9504352114067288 -0.3095277638490087 0.02941891100769242
-0.9323569464093487 -0.3605474599948961 0.02675917736895568
-0.9124490785602595 -0.4084575080287142 0.02447740120000588
-0.8907307836631626 -0.4539701679961528 0.02257781221360279
-0.8697694466444331 -0.493000227701786 0.02125759087534095
-0.8484265189971226 -0.528916936979845 0.02047719800859518
0 0 0
0 0 0
0 0 0
0 0 0
0 0 0
0 0 0
0 0 0
0 0 0
0 0 0
0 0 0
0 0 0
0 0 0
0 0 0
0 0 0
0 0 0
0 0 0
-0.7600215885012134 0.6493040437083655 0.02777487778653617
-0.781358084334148 0.6234303389767689 0.02853342757155242
-0.8138629404939755 0.5803376128718229 0.02890275379152342
-0.8407919319383658 0.5404949521060177 0.03056360474917391
-0.8659703437075673 0.4989987188057488 0.03310049016583468
-0.8904201133336589 0.4537047077008973 0.03611177066992222
-0.9134837331085724 0.404968983314523 0.03933944457192882
-0.9347804551683586 0.3526735785133281 0.04250703064011174
-0.9538652323709937 0.2967825640262972 0.04540075069650987
-0.9701904811715104 0.2375663501276647 0.04788172439681217
-0.9831649351373544 0.1757962879944129 0.04982344271271107
-0.9923784771750203 0.1121508687580235 0.05106016722071976
-0.9975550070350993 0.04729505413738072 0.05145080945276651
-0.9985389995016386 -0.01807151233638254 0.05092432538720992
-0.9953011452508526 -0.08322767911740643 0.04948518658215825
-0.9879408779970864 -0.1474622112214193 0.04719870595720913
-0.9766838758611454 -0.210087585980012 0.04417932604671104
-0.9618936060853025 -0.2703923723078786 0.04060363986060991
-0.9441155772852301 -0.3275608199837039 0.03673807206400623
-0.923883302930355 -0.381258955754682 0.0328823846967765
-0.9016642474916016 -0.4314455345671143 0.02926321064921673
-0.8778901200338007 -0.47815545799593 0.02600567506796991
-0.8532712348846591 -0.5209517192904919 0.02318417319399268
-0.8269524863615365 -0.5618921245559433 0.02065975949716122
-0.7953679575063333 -0.6058612209290772 0.01794416747947561
-0.7744678419691949 -0.632394790606555 0.01662499832387854
0 0 0
0 0 0
0 0 0
0 0 0
0 0 0
0 0 0
0 0 0
0 0 0
0 0 0
0 0 0
0 0 0
0 0 0
0 0 0
-0.7111013071265994 0.7025888681987622 0.02652947956563686
-0.7372223401312804 0.6750778908012928 0.02780400263696167
-0.7636903851602385 0.6449021271697826 0.02963514780958818
-0.7929267061711037 0.6084813164167688 0.03190182145833904
-0.8212744258616046 0.5694546378278362 0.03506754742007664
-0.8488130335543982 0.5272485479144725 0.03905640523985763
-0.8755770179006823 0.4811064838846439 0.04360546855960292
-0.9011192804205937 0.430858295491341 0.04842697244890887
-0.9249163646928715 0.3764274996789551 0.05321706313554671
-0.9463760716111064 0.317875608519838 0.05768386767608753
-0.9648477040806411 0.2554982456486793 0.0615593567279762
-0.979678597363807 0.1898887639427052 0.06459181988142848
-0.9903214562836313 0.1217974069946275 0.0665492665147583
-0.996375124715052 0.05208877963890824 0.06725600259302898
-0.9976103383412005 -0.01829273645365034 0.06662573547655905
-0.9939858686607708 -0.08837054089470606 0.06467410922981169
-0.9856510425709069 -0.1571881615102349 0.06151344698451145
-0.9729339844614966 -0.2238562158455744 0.05733983351192728
-0.9563191983338107 -0.2875860105207746 0.05242020079055228
-0.9364118448302274 -0.3477310970105268 0.04707378286801736
-0.9138431959811877 -0.4039280598006763 0.04162614160055723
-0.8892181186153287 -0.4560368750362883 0.03635252581804697
-0.8631016099494434 -0.5040500889957668 0.03145025732864543
-0.8360061162254675 -0.5480535312727151 0.02703887004142115
-0.8080026517633646 -0.5887238860496585 0.02314952997275369
-0.7791107717421945 -0.6265719975984195 0.01984785078561992
-0.7529053391570467 -0.6578909684721728 0.01769248065023086
-0.7272938128151899 -0.6861213152118523 0.01677052929103177
0 0 0
0 0 0
0 0 0
0 0 0
0 0 0
0 0 0
0 0 0
0 0 0
0 0 0
0 0 0
0 0 0
-0.6555740711608047 0.7546943357799613 0.02567287991812826
-0.6834769198588394 0.729475565741255 0.02692023415108355
-0.7112230475179352 0.7023597385133695 0.02919887660050877
-0.7396520607799586 0.6722094258982692 0.03239315849804402
-0.7692646239321436 0.6378892353400943 0.03645904282570925
-0.7990870422204874 0.5997825003133208 0.04148314444703758
-0.8287636556441025 0.5575887757859253 0.04738734220207029
-0.8579708830422226 0.5108577908152822 0.05394702415405305
-0.8861886742298937 0.4593109925986275 0.06085265602031184
-0.9127691872317849 0.4028197194323376 0.06773982932278004
-0.9369687151241882 0.3414408271829771 0.07421447575191593
-0.9579827308651296 0.2754796367103112 0.07987525976260201
-0.9750094701650213 0.2055331775262285 0.08433650469693499
-0.987339933989967 0.1324589433245706 0.0872610055066146
-0.9944337920889201 0.05732596755800666 0.0884034309016816
-0.995976831694611 -0.01865541383217171 0.08764773963037729
-0.9919137869970754 -0.09422185779039756 0.08502517673986901
-0.9824515643475072 -0.1681512738355561 0.08070980621098707
-0.9680327981823496 -0.2393494526259766 0.07499560767735321
-0.9492848188660571 -0.306918028057324 0.06826167829639451
-0.9269509274902219 -0.3702021468313051 0.06092904485144833
-0.9018082661646258 -0.4288229706702759 0.05341077515512115
-0.8746073146236181 -0.4826384800789113 0.04606672067752688
-0.8460349617476742 -0.5316859002733536 0.03917839903728611
-0.8166785327940368 -0.5761516005197582 0.03294703768019342
-0.7869537300629398 -0.6163982858513629 0.02751326842683034
-0.7573126438331372 -0.6526465193738625 0.02302347149423602
-0.7288110664120092 -0.6844314334910668 0.01969878993117699
-0.7011467415129374 -0.7128001713857353 0.01758301846259797
-0.6737174103804785 -0.7388039229526674 0.01654129317709951
0 0 0
0 0 0
0 0 0
0 0 0
0 0 0
0 0 0
0 0 0
0 0 0
0 0 0
-0.5993014769111144 0.80014856571818 0.0244951536287486
-0.625815793254314 0.7795400934232342 0.0259197928072127
-0.6531442309285308 0.7567025393102202 0.02835278833275944
-0.6815534172102883 0.7310696506726057 0.03197038245646393
-0.7111229898583459 0.7021038715224294 0.0368000935887718
-0.7418402311134701 0.6692070795728849 0.042836388165241
-0.7733044925938363 0.6320554800683027 0.05006028215878082
-0.8051465195475918 0.5901983245417443 0.05835254723246383
-0.8369257107454996 0.5431420615752653 0.06746892351972804
-0.8680352989588437 0.4904873967030622 0.07705084968307015
-0.8977042522465326 0.4319954443019888 0.08664301241774112
-0.9250230053709217 0.3676555279873278 0.09571756513256333
-0.9489911876600639 0.297758901956841 0.1037080616393799
-0.9685966495226325 0.2229531308290246 0.1100564945247028
-0.9829214947838635 0.1442458061211076 0.114273717487124
-0.9912513646128838 0.06295638966097142 0.1160052807157995
-0.993166449648161 -0.01938227219897584 0.1150857541908258
-0.9885948983598797 -0.1011591905639664 0.1115658778536787
-0.9778169808774496 -0.1808325285792058 0.1057050070496164
-0.9614202077545347 -0.2570613163813424 0.09793193422739198
-0.9402172632094502 -0.3287990744899706 0.08878438250880438
-0.9151455634485793 -0.3953388326752004 0.07884037721492643
-0.8871683959219837 -0.4563101243835872 0.06865353350155343
-0.8571986030908734 -0.5116291759420374 0.05870384300815974
-0.8260487492967873 -0.5614320180153682 0.04937158020971864
-0.7943999622692925 -0.6060140249101488 0.04093533386633019
-0.7627927256616166 -0.6457700319146861 0.03359052781107521
-0.7317115817923576 -0.6810600790115879 0.02748326486528101
-0.7016868814383483 -0.7121228074854956 0.02272944073883882
-0.6729047335142474 -0.7394755719768662 0.01936744855693853
-0.6454809236764332 -0.7635785596871948 0.01738276030574651
-0.6193575907461409 -0.7849296173136705 0.01678304647405989
0 0 0
0 0 0
0 0 0
0 0 0
0 0 0
0 0 0
0 0 0
0 0 0
-0.5716971864883054 0.8200789810726457 0.02515535259555097
-0.5927213804902491 0.8049442552616574 0.02731503305853128
-0.6190861318313627 0.7847128344845001 0.03095365518612601
-0.6477837423332301 0.760967944502022 0.03611108706647198
-0.6781741654232456 0.7336517647539851 0.04283560932036794
-0.7100526720463398 0.7022892649929147 0.05113698461548813
-0.7431628492280479 0.6663271212148562 0.06096841035135988
-0.7771715038514295 0.6251354410548854 0.07218125752867595
-0.8116052537242153 0.578063976799142 0.08449231239830385
-0.8457910496424982 0.5245351525323001 0.0974698625348256
-0.8788384785239274 0.4641387604599179 0.1105356942551995
-0.9096566287787662 0.3967358875566171 0.1229855814456019
-0.9370091499791819 0.3225659113401062 0.1340338975655684
-0.959614058790239 0.2423314133184447 0.1428857735787876
-0.9762829542616605 0.1572270992961936 0.1488329011510195
-0.9860756841134125 0.06888978117143231 0.1513570059508886
-0.9884357627727625 -0.02073575720323074 0.1502157489913608
-0.9832715414005303 -0.1095944795249293 0.1454858272461085
-0.9709613093409246 -0.1957399847412801 0.1375499695981071
-0.9522829392819719 -0.2775249892777716 0.1270318223078791
-0.9282902362308187 -0.3537252885719496 0.1146981148198221
-0.9001696906879457 -0.4235823782332094 0.1013533266206195
-0.8691096248002671 -0.4867735948560813 0.0877492303694216
-0.836203210853958 -0.5433327893824967 0.07452295042042992
-0.8023902231738589 -0.593552937909081 0.06216783456501772
-0.7684325446547667 -0.637892666118227 0.05103303663294761
-0.7349220631069364 -0.6768901482382308 0.04134354093047438
-0.7023307547802724 -0.711074747881926 0.03322971282493658
-0.6710701479840063 -0.7409110445028452 0.02675220772994789
-0.6415193587253109 -0.7667937065059082 0.02191629630199022
-0.6145000269690605 -0.7886947059954805 0.01871837572350277
-0.5931716868207854 -0.804891786059776 0.01722099554868015
0 0 0
0 0 0
0 0 0
0 0 0
0 0 0
0 0 0
0 0 0
-0.4921864103037661 0.8700979158814838 0.02611808360103785
-0.5258490988667478 0.8501549264948161 0.02682025685229293
-0.5527265593511441 0.8328326120477526 0.02971852784986909
-0.5802454689976601 0.813704503810006 0.03464355909829701
-0.6094224431115319 0.7917567832815084 0.04153892102221247
-0.6404353167449179 0.7663541053154598 0.05043798501107448
-0.6732944170653369 0.736823531654773 0.06136539047733463
-0.7078813309009511 0.7024147527454537 0.07428012175165512
-0.7439330548872988 0.6622977903558432 0.08902385486945891
-0.7809906251671919 0.6156060394477082 0.1052751043526678
-0.818342279669262 0.5615211567167437 0.1225149128278072
-0.8549888617046026 0.4993906764259012 0.1400107090902274
-0.8896468721471974 0.4288742672906058 0.1568289059282553
-0.9208051751825203 0.3501031518510593 0.1718883719774033
-0.9468480571010724 0.2638174895790904 0.1840627310351297
-0.9662410156491111 0.1714324093490095 0.1923258399232083
-0.9777494778845411 0.07498789937089967 0.1959152200428713
-0.9806377692278053 -0.02303425569201759 0.1944710483044408
-0.9747903327149309 -0.1199981284604057 0.1881070344551578
-0.9607176901000661 -0.2134358665798175 0.1773884178465865
-0.9394484558283305 -0.3013208838099367 0.1632247647318375
-0.912345963549131 -0.3822305356850955 0.146712850103502
-0.8809050284787387 -0.455380855044118 0.1289752211091732
-0.8465771660732226 -0.5205567245832462 0.111030619085878
-0.8106505909240207 -0.5779820898498215 0.09371405042665021
-0.7741882688344152 -0.6281748207058317 0.07764611407125815
-0.7380136228214886 -0.6718158440467132 0.06324052670324326
-0.7027315131497081 -0.7096438730558168 0.05073454307137381
-0.668772700236928 -0.742377795386905 0.04022790492041776
-0.6364375120375102 -0.7706758549742917 0.03171781567429225
-0.6059102020737616 -0.7951362799100448 0.02512216936786972
-0.5772259100650333 -0.8163325491027211 0.020283442140009
-0.5496389373634804 -0.8352313473186911 0.01690073933731331
-0.5162573260986755 -0.8563126790552893 0.01438641507112165
0 0 0
0 0 0
0 0 0
0 0 0
0 0 0
-0.4260219686217585 0.9043676448735558 0.02498890068608944
-0.4550868571486137 0.8900642758751278 0.02610626862424093
-0.483042987462842 0.8751365172098706 0.02838218646880656
-0.5097249013150412 0.8597172244755453 0.03266219403891956
-0.5371654658039112 0.8425659441399843 0.03919045959367245
-0.5662887357494679 0.8228028414657985 0.04808899914821669
-0.5974854697664469 0.7996712906932453 0.05947218054660043
-0.6309248260974177 0.7723618298285736 0.0734238901026113
-0.6666180189871416 0.7399527179505589 0.08994660615742536
-0.7043982290230518 0.7014011959368119 0.1089013190351593
-0.7438612819213247 0.6555798517561603 0.1299440311431569
-0.7842930649268942 0.6013637473304351 0.1524664937101746
-0.8246092563483614 0.5377733606521364 0.1755545126663214
-0.8633343002742411 0.4641726866409945 0.1979838451653747
-0.8986502311690533 0.3805028756164076 0.2182780879232984
-0.9285415126427711 0.2875020956052587 0.2348471935571273
-0.9510395226577881 0.1868348130762069 0.2462043439211116
-0.9645296509116302 0.08105122759392303 0.2512235080915128
-0.9680420281744633 -0.02666229078826127 0.2493667057523789
-0.9614317803596361 -0.1329031905926802 0.2408021462628316
-0.9453856372711797 -0.2345286688064832 0.2263676221309569
-0.9212577479073385 -0.3290475102357119 0.2073931000018498
-0.8908000273836736 -0.4148304318936565 0.1854481706250244
-0.855876883903161 -0.4911213519015175 0.1620943469299302
-0.8182356687155569 -0.5579001183382484 0.1387005710145915
-0.7793647752024314 -0.6156743144193854 0.1163429660008856
-0.7404357162625442 -0.6652677302624705 0.09577994129353624
-0.7023071779492224 -0.7076451671577203 0.07747867577160204
-0.6655658383196382 -0.743787054836654 0.06166791645007464
-0.6305817768954528 -0.7746123963343559 0.04839688102057477
-0.597556006007763 -0.8009457042189486 0.03758721294885032
-0.5665356949888389 -0.8235242579418068 0.02907065332787436
-0.5373535601117359 -0.8430539336573009 0.02261009465248183
-0.5093289982793339 -0.8603854666489392 0.01791145697750551
-0.4806906131882698 -0.8767670033668494 0.01470225152144674
-0.4516821636086904 -0.8920825382721499 0.01311365653394776
0 0 0
0 0 0
0 0 0
0 0 0
-0.3954723749443299 0.9181483737860584 0.02460008881909551
-0.4147974590970424 0.9095266617382223 0.02653901870759796
-0.4383795116816891 0.8982821312490097 0.03020954181149659
-0.4633112468217743 0.885462010277306 0.03605158698482759
-0.4897242897437966 0.870745605167158 0.04440958361675108
-0.5181127705105355 0.8535062635516261 0.05555371375559922
-0.5488752031924754 0.8329917611212915 0.06971898754620363
-0.5822858748603839 0.8083057980582247 0.0870913127902756
-0.6184832008533085 0.7783742807429649 0.1077590336821835
-0.6574233253789696 0.7419332323170423 0.13164212863382
-0.6988005465050419 0.6975568217146937 0.1584054187316511
-0.7419475318538489 0.6437453696637393 0.1873653089888229
-0.7857379515054382 0.5790935415329242 0.2174086974315713
-0.8285266795281345 0.502549645959415 0.2469562606133932
-0.8681751662287082 0.4137494258072935 0.2740133087787696
-0.9022101282796566 0.3133595207328363 0.2963489416139233
-0.9281358928803104 0.2033130514091673 0.31181335358506
-0.9438587158048272 0.08679991373783853 0.318742058056928
-0.9481075445184569 -0.03207031840157261 0.3163282768024439
-0.9407005375774649 -0.1488836503846323 0.3048215170384382
-0.9225522482445659 -0.25962731552804 0.2854662962428318
-0.895426867801642 -0.3612515283178034 0.2602077203062809
-0.8615469432861412 -0.4519336974121922 0.231285100379707
-0.8232001840513058 -0.5310357034657259 0.2008545210408705
-0.7824470486201259 -0.5988551281486959 0.1707312261880143
-0.7409632206692804 -0.6563016995303244 0.1422729236679091
-0.6999982764390099 -0.7045985653780223 0.1163755758295012
-0.6604096896435877 -0.7450570232749072 0.09353648429139268
-0.6227328070383992 -0.7789326797061837 0.07394411081228544
-0.5872575138934371 -0.8073503271609407 0.0575678869581066
-0.5540920084997143 -0.8312793806860094 0.04423389382630848
-0.5232012658750537 -0.8515432560630989 0.03368261332196034
-0.4944174618278226 -0.8688471464389841 0.02561268366586193
-0.4674695664309377 -0.8837890476991078 0.01972621676791811
-0.4424290075495849 -0.896664155656578 0.01581028903484364
-0.422330641051316 -0.9063357416148733 0.01386914202832453
0 0 0
0 0 0
0 0 0
-0.31664576470384 0.9482606096647669 0.02317921166314144
-0.3462201908927263 0.9378327935854394 0.02452000599377028
-0.3679543356009531 0.9294395930023553 0.02741623373253368
-0.3898335552594445 0.9203157706517209 0.03238335194988933
-0.4129095988945971 0.9099013758439443 0.03981393447023118
-0.4376800768744515 0.897733183178931 0.05011269426600071
-0.4646275862178854 0.8832141633922348 0.06367061888104994
-0.4941961244465992 0.8655820515185125 0.08085729819233624
-0.5267624211243004 0.843871097998438 0.101994713854078
-0.5626002682201351 0.816869154546103 0.1273016989272589
-0.6018162885718493 0.7830891549169618 0.1568073029582568
-0.6442500352836917 0.7407785811258673 0.1902340289803821
-0.689342593244279 0.6879986628236576 0.2268581695511782
-0.7359927035718855 0.6228111891261516 0.2653694839053945
-0.7824413565902778 0.5436044524050005 0.3037757772150783
-0.8262516257568401 0.4495550423726046 0.3394237982398169
-0.8644634756820128 0.3411488203385213 0.3692159010571039
-0.8939752321600828 0.2205875732294179 0.3900633369352753
-0.9121141904945586 0.09185005450214238 0.3995137932367408
-0.9172342186074015 -0.03975572551768456 0.3963595217781855
-0.909104793075994 -0.1684927206656672 0.3809707052897051
-0.8889192368243155 -0.2892411926795582 0.3551930782841676
-0.8589317739796286 -0.3982995882662205 0.3218596676117819
-0.8219022730842853 -0.4937009840724241 0.2841407957770318
-0.7805695844882949 -0.5750630620154282 0.2449767304811011
-0.7372944763920427 -0.6431636000041394 0.2067303526613802
-0.6939003586824667 -0.6994554567385128 0.1710682795233002
-0.6516655941990945 -0.7456606617302861 0.1390040678724639
-0.6114005138438242 -0.7834943426197404 0.1110226407286722
-0.573553967199654 -0.8145106710305082 0.08722507372865423
-0.5383154447103682 -0.8400391216122245 0.06745929251956978
-0.5056960373351814 -0.8611777510191279 0.05142371994645554
-0.475583538924543 -0.8788169571818062 0.03874342878113433
-0.447776726286806 -0.8936741699581071 0.02902552920376577
-0.4220179018448287 -0.9063229025013398 0.02190175618608403
-0.3980252146054541 -0.9172159152843081 0.0170555940222155
-0.3749861422464932 -0.9269219137391813 0.01418305161755012
-0.3453278764983757 -0.9383938830940783 0.01286770705058591
0 0 0
0 0 0
-0.2858719560498733 0.9580009970076366 0.02261226385378381
-0.301134785500042 0.9532615536112965 0.02470326635124805
-0.3188534644907253 0.9473718815036481 0.02861793700634318
-0.337958778783948 0.9405165190179929 0.03482156368027688
-0.3585590870412681 0.9324788211713677 0.04380215938727776
-0.3809934934040242 0.9228767502074499 0.05605766593725894
-0.4057068046918127 0.9111550478024149 0.07210039868778623
-0.4331789869177806 0.8965542771300892 0.09244670601285968
-0.4638785717109129 0.8780606999686956 0.1175843436768991
-0.4982140828341072 0.8543453333571461 0.1479080086967431
-0.5364598688281911 0.8237090249600078 0.1836144093917269
-0.5786412690452337 0.7840609892090015 0.2245498763266708
-0.6243742390615005 0.7329737862980729 0.2700115519681323
-0.6726714819920526 0.6678742817710079 0.3185231876386327
-0.7217574034023027 0.586433200082902 0.3676443287669381
-0.7689765279491136 0.4871797959836233 0.4139214247277869
-0.8109149581480182 0.370264256034611 0.4531239470111171
-0.8438367146009027 0.2381256052569441 0.4808698318802795
-0.86441938247461 0.09568961430833851 0.4935814308862672
-0.8705757560356189 -0.05021014677778237 0.4894658253275337
-0.8620073728212142 -0.1921391641923106 0.4690691108838313
-0.8402165293980414 -0.3236025837330466 0.4351063680614274
-0.8079915160333982 -0.440172502257598 0.3916604119314781
-0.7686468307359738 -0.539838292933228 0.3431569132080555
-0.7253462820710264 -0.6226651770052721 0.2935316821583858
-0.6806912331305096 -0.6901080564002926 0.2457851005058618
-0.6365810272327583 -0.7443142942015033 0.2018931083880871
-0.5942577592416943 -0.7875968340496768 0.1629384625432735
-0.5544362453662908 -0.8221158661712696 0.1293288537550426
-0.5174497646367372 -0.8497303116792212 0.1010155358888836
-0.4833759487141454 -0.8719601656550595 0.07767342991976499
-0.4521314654502602 -0.890008840686649 0.05883367615070883
-0.4235379621266419 -0.9048103613199381 0.04397504617045623
-0.3973713672307733 -0.9170791604411491 0.03258542603224399
-0.3734157284024331 -0.9273482794242304 0.02420459523725555
-0.3515465889647034 -0.9359884788459999 0.01845435598531251
-0.3318716934022293 -0.9432044091689128 0.01505395770746783
-0.3156577839520762 -0.9487730733495342 0.0137774713697093
0 0 0
0 0 0
-0.2426520030984914 0.9698389379222726 0.02307465887261636
-0.2528464091702002 0.967170859622744 0.02547982861672547
-0.2668673071812354 0.9632625989537096 0.03011653723090617
-0.2828248228759236 0.9584426909417261 0.03738619726028871
-0.3003988589314314 0.9526150791784298 0.04780205512912034
-0.3197944279015983 0.9454603706894535 0.06193715636716034
-0.3414217278569868 0.936463411744577 0.08042065786137295
-0.3657825320455559 0.9248799415815344 0.1039241690391556
-0.3934148851543112 0.9096715744271094 0.1331253349979777
-0.424843320436967 0.8894211090025635 0.168636425308242
-0.4605050615510327 0.8622434604873626 0.2108822020291363
-0.5006309736065317 0.8257210533008477 0.2599103122261873
-0.5450670390888179 0.7769164028560064 0.3151235089171106
-0.593037961572018 0.7125452201080174 0.3749470435084428
-0.6428892165236827 0.6294148626562556 0.4364978647656502
-0.6919029787422371 0.52520563378159 0.4954082258619626
-0.7363483652988357 0.3995395263237086 0.5460396064634492
-0.7719352093863107 0.2550205534618828 0.5823062337135909
-0.7947045479114868 0.09766649795026673 0.5990875868409641
-0.8021006566248186 -0.06381246209060178 0.5937697418393513
-0.7937249711924735 -0.2198780672712588 0.5671457534343022
-0.771359899240793 -0.3623938082216487 0.5231392105413664
-0.738280909762595 -0.4861760313174406 0.4675191598774723
-0.6982733146216455 -0.5893326913022767 0.4063266629815418
-0.654811655089836 -0.6726124532286739 0.3446943343314684
-0.6106181373232112 -0.7383563196257463 0.286313526820956
-0.5675673267716522 -0.7895429402410367 0.2334293792495256
-0.526795867185185 -0.8291407046884254 0.1871144199290631
-0.4888861322441851 -0.8597673843024715 0.1476156989923737
-0.4540449123457806 -0.8835696462017654 0.1146642833832715
-0.4222451693636799 -0.9022284458513463 0.08770888464517605
-0.3933265941009378 -0.9170214010119957 0.06607526359351214
-0.3670645293067689 -0.9289004297340634 0.04906753473196336
-0.3432241526196609 -0.938562202124442 0.03603017904248632
-0.3216267327132905 -0.9464988056033189 0.02638665942600145
-0.3022796326440924 -0.9530163670379496 0.01966793955503183
-0.2857181784657107 -0.9581876936763749 0.01553918213373792
-0.2740794939785164 -0.9616082684453893 0.01378292559437402
0 0 0
0 0 0
-0.1916342207687682 0.9811695442896355 0.02413816042733375
-0.2003242109985679 0.9793693077494083 0.02657008705754674
-0.2117285470804366 0.9768144499509215 0.03169467965267875
-0.2245609067728518 0.9736448425419647 0.03985122006647734
-0.2387002602163197 0.9697246370596245 0.05153944171448177
-0.2544041677862021 0.9647472152788542 0.06738939103972789
-0.2720925049545492 0.9582258678667961 0.08814110788096147
-0.2922784871891636 0.9494390862102101 0.1146242012087087
-0.3155360158006359 0.9373450878909273 0.1477200356736026
-0.3424646419376325 0.9204704142354424 0.1882875076572041
-0.3736286441703515 0.8967825787646501 0.2370287802770977
-0.4094481627847214 0.8635738072846557 0.2942660044315353
-0.4500215287719997 0.8174147753529082 0.3596021533256806
-0.494868108270261 0.7542848972723556 0.4314624539445406
-0.5426144049654335 0.6700335298786413 0.5065813620361256
-0.5907157077005015 0.5613229720548406 0.5796304630705806
-0.6354018548500173 0.4270518973400423 0.6433437338090948
-0.6720866167087116 0.2698807620615875 0.6895389429974886
-0.6963497485992989 0.0970156601905907 0.7111153136471442
-0.7052272105404789 -0.08064915614931242 0.7043793687535848
-0.6981689399232492 -0.2511125932943169 0.6704495482998321
-0.6770933064335838 -0.4043964917338084 0.6148236591545777
-0.6455503853077501 -0.5346068696314759 0.5453991153016745
-0.6075521793763344 -0.640182787192878 0.4701556639210302
-0.5666539966311759 -0.7227972514262428 0.3955595801299516
-0.5255199409914755 -0.7858524131642709 0.3259827853494843
-0.4858865791542006 -0.8332433963520445 0.2638554047836389
-0.4487323263782474 -0.8686084948082022 0.2101394346861033
-0.4144989250435849 -0.894997197456971 0.1648352440525983
-0.3832860720013741 -0.9148023483991086 0.127390935208252
-0.3549948452440424 -0.929823636271044 0.09698796462371502
-0.3294235240337503 -0.9413775770973281 0.07272138029183008
-0.306329320737699 -0.9504094631824782 0.05370474419986632
-0.2854728856407655 -0.957587791181979 0.03912612609436923
-0.2666662452329158 -0.9633740939459048 0.02827487873156879
-0.2498628697530499 -0.9680630888747895 0.02055242752015455
-0.235405384439049 -0.9717739602026171 0.01548144855062373
-0.2248754744467103 -0.9743038541173483 0.01276796164027771
0 0 0
-0.09972803889336114 0.994727439140598 0.02390899578133088
-0.1297874889774183 0.991237530114401 0.02456352168639996
-0.1434989500480629 0.9892724000621591 0.02735269292699967
-0.1537603845723037 0.9875568636676204 0.03300280532242481
-0.1635923442324895 0.9856361676114752 0.04193912260267291
-0.1739569418568778 0.9832321336759718 0.05471337758535873
-0.1853820702413144 0.9800230053956624 0.07203052775245454
-0.1983365227987773 0.9755443218403325 0.09474122571075169
-0.2133244728166158 0.9691023565843863 0.1238276696061973