# OOMMF: rectangular mesh v1.0
# Segment count: 1
# Begin: Segment
# Begin: Header
# Title: 
# Desc: time = 3.28e-09
# Desc: stepsize = 2.951884750039974e-14
# Desc: step = 20990
# meshunit: m
# valueunit: (none)
# valuemultiplier: 384000.0000000001
# xmin: 0
# ymin: 0
# zmin: 0
# xmax: 9.357999999999999e-08
# ymax: 9.357999999999999e-08
# zmax: 2.3395e-08
# ValueRangeMaxMag: 1
# ValueRangeMinMag: 0
# meshtype: rectangular
# xbase: 1.16975e-09
# ybase: 1.16975e-09
# zbase: 1.16975e-09
# xstepsize: 2.3395e-09
# ystepsize: 2.3395e-09
# zstepsize: 2.3395e-09
# xnodes: 40
# ynodes: 40
# znodes: 10
# End: Header
# Begin: Data Text
0 0 0
0 0 0
0 0 0
0 0 0
0 0 0
0 0 0
0 0 0
0 0 0
0 0 0
0 0 0
0 0 0
0 0 0
0 0 0
0 0 0
0 0 0
0 0 0
-0.9863328272012581 0.164135878988443 0.01438635512781477
-0.9910257461196582 0.1327826742888565 0.01538609556299063
-0.9957758878971976 0.09040846763163836 0.01602154995766198
-0.9989095096993343 0.04375815493699147 0.01627929079367945
-0.9998582320750093 -0.004098521067094292 0.01633149953000454
-0.9985697503484747 -0.05088286339338204 0.01641304060418161
-0.995481844424654 -0.09345490415098724 0.0167951871385305
-0.9920102124550444 -0.1249168817021087 0.01764967565476014
0 0 0
0 0 0
0 0 0
0 0 0
0 0 0
0 0 0
0 0 0
0 0 0
0 0 0
0 0 0
0 0 0
0 0 0
0 0 0
0 0 0
0 0 0
0 0 0
0 0 0
0 0 0
0 0 0
0 0 0
0 0 0
0 0 0
0 0 0
0 0 0
0 0 0
0 0 0
0 0 0
0 0 0
-0.9268760960202479 0.3750103186178626 0.01636959243209281
-0.9382523775144102 0.3455052496690818 0.0175669729794758
-0.9524536225727127 0.3041498122353063 0.01802743923422657
-0.9667441248670787 0.2551399396395003 0.01759000385837676
-0.9806296711516785 0.1951528302164422 0.01675771211897885
-0.9891685981718709 0.1457682786760879 0.01723639528745874
-0.9951680185598448 0.09656283336526184 0.01778297073449839
-0.9987664895189086 0.04624118241589683 0.01809012058707971
-0.9998240525794047 -0.004628642599139805 0.01817799635230756
-0.998311216199553 -0.05517751111504558 0.01817024703513115
-0.9943260332747336 -0.1048099872577328 0.01818257746213764
-0.9877806021959309 -0.1547951932675385 0.01810883946333375
-0.9763418829111402 -0.2155562257961129 0.01708921279824424
-0.9639558466750976 -0.2656093483514784 0.01551772306744807
-0.9512693487111769 -0.30801347837887 0.01463978618566535
-0.9409391844970573 -0.3382470214858599 0.01491319999048794
0 0 0
0 0 0
0 0 0
0 0 0
0 0 0
0 0 0
0 0 0
0 0 0
0 0 0
0 0 0
0 0 0
0 0 0
0 0 0
0 0 0
0 0 0
0 0 0
0 0 0
0 0 0
0 0 0
0 0 0
0 0 0
0 0 0
-0.8771946806847897 0.4798941726680784 0.01520115842723049
-0.8923768735965185 0.4509979827249279 0.01625838393409342
-0.9143868932501468 0.4044782148960828 0.01714593616056499
-0.9319936332123746 0.3620027821538904 0.01848927701236086
-0.9484394409046317 0.3163576594660318 0.01950533859442807
-0.963640819937253 0.2664472007726054 0.02005640424156177
-0.9770487433207007 0.2120311783070933 0.02045806934059702
-0.987157479280633 0.1583443452836071 0.02114661715290998
-0.9942922233135677 0.104442477994495 0.02178860822840811
-0.9985049218161963 0.04996562735858097 0.02216657825408004
-0.9997409360758153 -0.00488123212534598 0.02223138113546737
-0.9979726548014711 -0.05971465431512649 0.02201681921913829
-0.993210728288177 -0.114315377038371 0.02155095788691046
-0.985394167733728 -0.1690196478284782 0.02075314058859208
-0.9742290591911211 -0.22472293949381 0.01942525914483042
-0.9609618058149907 -0.2761049059634165 0.01784625080302476
-0.9461545731558062 -0.3232869783547253 0.01664491882301833
-0.9299760935380558 -0.3672678947300675 0.01608598608231884
-0.9095827780915583 -0.4152234598874535 0.0157685813672143
-0.8953673347911796 -0.4450450251479364 0.01588273842924645
0 0 0
0 0 0
0 0 0
0 0 0
0 0 0
0 0 0
0 0 0
0 0 0
0 0 0
0 0 0
0 0 0
0 0 0
0 0 0
0 0 0
0 0 0
0 0 0
0 0 0
0 0 0
0 0 0
-0.8395260128354992 0.5430991223382348 0.01547310854248679
-0.8609258259474903 0.5084717376243827 0.0162238791252857
-0.881842899342381 0.4712092769949855 0.01774593342953446
-0.9036289246051645 0.4278718905993217 0.0195041496065631
-0.9237607034441844 0.382368658686198 0.02145627243541369
-0.942310193033866 0.3339297175834122 0.02329042333535408
-0.9590420893680615 0.2821699902726011 0.024866994392224
-0.9734836513548921 0.2272466719356249 0.02623986735730451
-0.9849375417244185 0.1707141577796794 0.02747208101752375
-0.9931874344152245 0.1130092014449621 0.02841901666974673
-0.998097680243478 0.05443928048019174 0.02893761277966996
-0.9995699266754214 -0.004600908139654168 0.02896192898241368
-0.9975645906121423 -0.06366552151137216 0.02848839987632242
-0.992106348502037 -0.1223388041836931 0.02753561789497088
-0.9832707929848508 -0.1802682297812248 0.0261134638545979
-0.971221351001049 -0.2369397404350674 0.02426204365380727
-0.9565587912057723 -0.290692289010173 0.02220972933146527
-0.9397488697522949 -0.3412620413077203 0.0203047029471308
-0.9210751094255414 -0.3889333031587611 0.01874909306450505
-0.9005721151521406 -0.4343524244295318 0.01754527864089753
-0.8806851014483658 -0.4734032257174362 0.01682670399119091
-0.8603941166355324 -0.509359964262066 0.01656474768621501
0 0 0
0 0 0
0 0 0
0 0 0
0 0 0
0 0 0
0 0 0
0 0 0
0 0 0
0 0 0
0 0 0
0 0 0
0 0 0
0 0 0
0 0 0
0 0 0
-0.7653861933702474 0.6433644009275893 0.01631632977374546
-0.7859907404507059 0.6180035189656384 0.01703544750918111
-0.8173321890457126 0.5759070665756169 0.01729576300747309
-0.8433587072929221 0.537022953830226 0.01877332929103471
-0.8677260599658548 0.496596089411036 0.02106677093907947
-0.8914127683583889 0.4525669655570749 0.02379953978743825
-0.91379416278248 0.4052961469847601 0.02674436957517097
-0.9345186344325589 0.3546761438713434 0.0296606619423553
-0.9531810319483691 0.3006627218763427 0.03237048049922307
-0.9692812314363314 0.2434851135209942 0.03476915125419468
-0.9822682140801542 0.1838420744660512 0.03675931533370389
-0.9917532090284401 0.1223378885772771 0.03819703391945797
-0.9974643411671792 0.05956257644618312 0.03895109224421356
-0.9992338213205025 -0.003859202738465276 0.03894710365930613
-0.9970038879847547 -0.06727536880803324 0.03817423339145023
-0.9908317317782482 -0.1300291082318387 0.03667301887968103
-0.9808919326126201 -0.191465240943173 0.03452648325635128
-0.9674926876289649 -0.2508821839181623 0.031875212578662
-0.9511201531033712 -0.3074614089777734 0.02894713025537134
-0.9322605453478636 -0.3608513262692358 0.02601145742623612
-0.9113494889455771 -0.410974897910281 0.02327535791924746
-0.8888050749521401 -0.457810818675893 0.02085169160112493
-0.865321989001694 -0.5008636553208698 0.01880037576136361
-0.8401301097372463 -0.5421183298928305 0.01700338516561886
-0.8099097129698999 -0.5863617596564543 0.01503807333403927
-0.7898841221029391 -0.6130921526034365 0.01418048185897704
0 0 0
0 0 0
0 0 0
0 0 0
0 0 0
0 0 0
0 0 0
0 0 0
0 0 0
0 0 0
0 0 0
0 0 0
0 0 0
-0.7181012200441936 0.6957730294351013 0.01518319076285409
-0.7433554093904389 0.6686965430224606 0.0163605831125533
-0.7689539255373854 0.6390506149418986 0.01800477556166362
-0.7972009771400189 0.603383287218814 0.01998025905779234
-0.8246018708098271 0.5652556033177798 0.02275648423604873
-0.8512323713814829 0.52413054008535 0.02627978048036485
-0.8771272292387675 0.4793000375751233 0.03031992263194612
-0.9018691373663391 0.4306191211207758 0.03462992335054991
-0.9249772350765911 0.3780209009405826 0.03895270262939547
-0.9459125626080384 0.3215532408059356 0.04304575736926085
-0.9640824450270644 0.2614672775786863 0.04668942006736471
-0.9788855587102466 0.1982814545044674 0.0496742161299037
-0.9898082019727749 0.1326522838397396 0.05179859939730929
-0.9964598051491393 0.0653407156055139 0.05290035544585558
-0.9985965185328992 -0.002813138509875447 0.05288742218804499
-0.9961381631181605 -0.07092643366670537 0.0517513380203724
-0.9891751797249163 -0.1381148558505596 0.04956561721150934
-0.977964517674253 -0.2035317873413701 0.04647809927043541
-0.9629159380395756 -0.2664005708373927 0.04270400598158083
-0.9445639062132656 -0.3260609426121119 0.03851348831302689
-0.9234823581614744 -0.3821141354652601 0.03419242082916286
-0.9002368495573949 -0.4343665527411698 0.02998854045677928
-0.8753736015314802 -0.482742941951565 0.02608274789496706
-0.8494070385368362 -0.5272546953035322 0.02258692463484256
-0.8224514592088814 -0.5684996777460187 0.01953749338716979
-0.7945848742251107 -0.6069149784652168 0.01700254590435352
-0.7692486241011295 -0.6387621548759952 0.01547461846682669
-0.7444989369445353 -0.6674534822521166 0.01507255512444857
0 0 0
0 0 0
0 0 0
0 0 0
0 0 0
0 0 0
0 0 0
0 0 0
0 0 0
0 0 0
0 0 0
-0.6644518370600222 0.7471908454164967 0.01447745672905937
-0.691440709811341 0.7222645817356572 0.01560829221293677
-0.7183227958990157 0.6954860614564909 0.01764934025843543
-0.7458656979289318 0.6657817442908285 0.02047021304356178
-0.7745280113158868 0.6320832175657659 0.02402427436500855
-0.8033732980735974 0.5947975677657754 0.02841121824681774
-0.8320620553818615 0.5536651401750858 0.03358047868351528
-0.8602913467418084 0.5082819330883401 0.03934812850879704
-0.8875805736636508 0.4584041688211832 0.04545704854325509
-0.9133383223111496 0.4039183758367669 0.05160479298710612
-0.9368905196323268 0.3448679735531529 0.0574650767023733
-0.9575077228109633 0.2815086337906733 0.06270446442376507
-0.9744565172145345 0.2143497981284301 0.06699746338795351
-0.9870762140312156 0.1441301107772993 0.07005040229095533
-0.9948445476118722 0.07178053270285288 0.07163714966289031
-0.9974297645429649 -0.001629685346599739 0.07163245723438552
-0.9947241791738916 -0.07496318937811583 0.0700309046427926
-0.9868544678569409 -0.1470925295216205 0.06694809205440293
-0.9741671226760895 -0.2169765151861217 0.06260678042093101
-0.9571910477577543 -0.2837262808421387 0.05731226441085119
-0.9365809936345456 -0.3466585820949832 0.05141857468291146
-0.913044849436398 -0.4053372911206179 0.04528557545912327
-0.8872880760426926 -0.4595436318563734 0.039236724286188
-0.8599784278385597 -0.5092274799656324 0.03353322680819379
-0.8317094974941123 -0.5544857873113519 0.02836941042392018
-0.8029280090746637 -0.59559711146076 0.02388918297043879
-0.7741223080115818 -0.6327122995933948 0.02024347257905866
-0.7463510346558146 -0.6653184889948882 0.0176476987098347
-0.7193842348144525 -0.6944243141591147 0.01616151617477167
-0.6927412801070549 -0.7210163937786384 0.01564860179332648
0 0 0
0 0 0
0 0 0
0 0 0
0 0 0
0 0 0
0 0 0
0 0 0
0 0 0
-0.6100454231950788 0.7922519903168725 0.01346720006871306
-0.635715998754542 0.7717812368643653 0.01479497724314438
-0.6622457246138133 0.7490941414580981 0.01698727358582057
-0.6898492932948371 0.7236713706606239 0.0201915781153188
-0.7185651197579512 0.6950305548694073 0.02442737122909477
-0.7483542154244597 0.6626343769855066 0.02969260334611864
-0.7788203055863825 0.6262140199596282 0.03598517489655172
-0.8096080435975362 0.5853776679383177 0.04321807054076077
-0.8403048906606054 0.539691261767648 0.05119602234071915
-0.870353130832853 0.4888047741201218 0.05962650792077683
-0.8990527672352809 0.4325062386444808 0.0681357120766075
-0.9255834703073534 0.3707766759739149 0.07628824318026051
-0.9490428827769536 0.3038527356487147 0.08361292776360178
-0.9685106283825654 0.2322761157976605 0.0896379871480797
-0.9831365206393561 0.1569021679884468 0.09393769991683466
-0.9922339578264996 0.07886729124278227 0.09618587894273165
-0.9953615922781118 -0.0004853230635326281 0.09620324879704005
-0.9923772155284051 -0.07971306615901956 0.09398557965782016
-0.9834526833455074 -0.1573968860702097 0.08970529458132218
-0.9690471771258289 -0.232258600013673 0.0836869836004988
-0.9498454001358863 -0.3032529978908095 0.07636317902585014
-0.9266743687224154 -0.3696223918487759 0.06821951184890192
-0.900415761887378 -0.4309091782853556 0.05973889699526772
-0.8719341248618446 -0.4869224861534365 0.05135537342445102
-0.8420263040789862 -0.5376856433194711 0.04342639988772323
-0.8113860819712756 -0.5833868995561886 0.0362263910639614
-0.7805879692427087 -0.6243275168388347 0.02995953923874562
-0.7501595067592058 -0.6607922023055834 0.02478668575911643
-0.7206733906457832 -0.6929614730508945 0.02083892708955733
-0.6923808929849855 -0.7213033027671517 0.01817262904789287
-0.6654806354171863 -0.7462264651077659 0.01678054401696319
-0.6400171916223624 -0.7681800337083895 0.01665623725819564
0 0 0
0 0 0
0 0 0
0 0 0
0 0 0
0 0 0
0 0 0
0 0 0
-0.5833113303405901 0.8121236194145097 0.01425197128003493
-0.6038180158986337 0.7969571743848319 0.01621930555792316
-0.6295426901218875 0.7767222254399919 0.01945728196955692
-0.6575364337283695 0.753040589820246 0.02399392429246976
-0.6871436630390951 0.7259072145259252 0.02987142856352624
-0.7181372999532496 0.6949116418724144 0.03710294336088785
-0.750252765492357 0.6595726306149658 0.04565887443557368
-0.7831647994010777 0.6193390606937258 0.05542585026936816
-0.81642901767295 0.5736411373911626 0.06617782554719409
-0.8494282889393027 0.5219725009548201 0.07756474841458562
-0.8813575114637446 0.4639693740688334 0.08911429129275183
-0.9112372367598625 0.3994961041448456 0.1002474992971909
-0.9379576903697119 0.3287347991825518 0.1103122970603106
-0.9603592752187246 0.2522598834382726 0.1186381629538935
-0.9773470422696908 0.1710701843156074 0.1246103968572075
-0.9880215318209723 0.0865592260953422 0.1277534854159136
-0.991799237329509 0.0004166622403467376 0.1278049264511391
-0.9884938926909944 -0.08552719821477604 0.12475945847163
-0.9783378737014419 -0.1694837192551995 0.1188708281655578
-0.9619392331265051 -0.2498763496619027 0.110610676029184
-0.9401876936881991 -0.3254650264270401 0.1005963081336009
-0.9141349698623218 -0.3954060758131354 0.08950582151384594
-0.884877069216219 -0.4592479881941987 0.07799908791066164
-0.8534600494528088 -0.5168777583909921 0.06665828432169181
-0.8208170244144452 -0.5684439311464184 0.05595453131088936
-0.7877347602275864 -0.6142766669132083 0.04623985310514768
-0.7548509794189754 -0.6548085898183533 0.03775856949504641
-0.7226937272853489 -0.690487657210302 0.03066874276257804
-0.6917342992623351 -0.7217171420878606 0.0250604477329502
-0.6624168166513265 -0.7488420701543684 0.02096461267094248
-0.6356223053243111 -0.7717812273580523 0.01838537657775563
-0.6145185620182433 -0.7887118654678272 0.01733580702736907
0 0 0
0 0 0
0 0 0
0 0 0
0 0 0
0 0 0
0 0 0
-0.5063856851848764 0.8621654945096455 0.01562683322944795
-0.5390739577868293 0.8421045585956868 0.01609908160134104
-0.5653556447596897 0.8246369014930162 0.01862728199046346
-0.592331594722763 0.8053671638075786 0.02295677141334555
-0.6209261469402207 0.7833325236823984 0.02899788591148453
-0.6512664194604022 0.7579578849775009 0.03676813135937358
-0.6833266418373199 0.728643944517224 0.04628933650108613
-0.7169677051030062 0.6947281180809353 0.05753391857895892
-0.7519253244175004 0.6554808194310581 0.07037898733020301
-0.7877654388595881 0.6101426105269494 0.08456718132774327
-0.823835015600535 0.5579965353896509 0.09967814988056123
-0.8592324925980255 0.4984657375660301 0.115114864967723
-0.8928092552055289 0.4312337156507351 0.1301119375976277
-0.923214222992555 0.3563765812292726 0.1437749311096616
-0.9489922771261249 0.2744811286574926 0.1551572362665704
-0.9687356643446075 0.1867104473916392 0.1633720339030682
-0.9812674584480291 0.09478038451434391 0.167722549772706
-0.9858172722399264 0.0008286618785495639 0.1678201986440288
-0.9821421188314378 -0.0928085678738802 0.1636564332572742
-0.9705570987657312 -0.1838640178992018 0.1556050801143971
-0.9518685889846588 -0.2703849336374463 0.144354345158806
-0.92723358586364 -0.3509014020206226 0.1307902263413301
-0.8979877183984685 -0.4244918911685062 0.1158649728679787
-0.8654845086620122 -0.4907545109994978 0.1004817157482808
-0.8309740140596403 -0.5497149932318951 0.08541436748970052
-0.795529819301282 -0.6017085874440292 0.07126768130492411
-0.760019972432019 -0.6472640096453748 0.05847173096654776
-0.7251136279939838 -0.6870028930678536 0.04729959211030065
-0.6913141763926214 -0.7215598557128762 0.03789570084065445
-0.6589964114753075 -0.7515353922436329 0.03030319897099422
-0.6284196599486451 -0.7774891404864889 0.02448198144778219
-0.599696227674774 -0.799969985477352 0.02030903365524908
-0.5721805714144836 -0.8199406305151737 0.0175144547780881
-0.5392625151640076 -0.8419934527764746 0.01558734167645909
0 0 0
0 0 0
0 0 0
0 0 0
0 0 0
-0.4421663212073407 0.8968102299873772 0.01484438546904482
-0.470460779030932 0.8822792652771239 0.01580991637125981
-0.4978159226828696 0.8671004452898855 0.01777990161627782
-0.5240679221622636 0.8514041191430817 0.02153691869140529
-0.5511330033958358 0.8339716144637666 0.02727194229576941
-0.5798485467166784 0.8139690963347875 0.03507097207784442
-0.6105420382736234 0.7907030195746646 0.04502393070575152
-0.6433339599273524 0.7634456621930692 0.05720259507030644
-0.6782017118247134 0.7313779758451395 0.07161490436141077
-0.7149649129108756 0.6935806796223111 0.0881533559258877
-0.7532351494234548 0.6490651739569248 0.1065420556836209
-0.7923543206672924 0.596846647780734 0.1262882003703174
-0.8313435380994324 0.5360619326499558 0.146647625360628
-0.8688840394627829 0.4661315347853553 0.1666190812766815
-0.9033541589107984 0.3869518104839301 0.1849852965556241
-0.9329438351274221 0.2990808800524949 0.2004156373259381
-0.9558521736769573 0.2038600540189331 0.2116310479405912
-0.9705431921330128 0.1034073039120242 0.2176070810013024
-0.9760011405277644 0.0004444516152692589 0.2177649562056849
-0.9719097877599635 -0.1020250026062891 0.2120902244318886
-0.9586966004984561 -0.2011092735879574 0.2011364916409426
-0.9374298736233431 -0.2943836146893047 0.1859126661660823
-0.9096094529158586 -0.3801174984191716 0.1676941578042085
-0.8769209347578494 -0.4573395533441881 0.1478181556181692
-0.8410183854985834 -0.5257642906390031 0.1275146499121627
-0.803373110502082 -0.5856371581662552 0.1077996488730908
-0.7651954164007877 -0.6375562246851946 0.08943173421323172
-0.7274165647899572 -0.6823109327386914 0.07291729790958018
-0.6907112825109623 -0.7207568475617447 0.05854477692259984
-0.6555407817265885 -0.7537310805061124 0.04642996631897278
-0.6221941728722584 -0.7820088482704377 0.03655916397497322
-0.5908030309300241 -0.8063008586576942 0.02882193560053748
-0.561285088051493 -0.827302046200844 0.02302985633745092
-0.5330575237554726 -0.8458672408112464 0.01892847828146849
-0.5044697150146227 -0.863275997562012 0.01627447898944626
-0.4758066059718654 -0.8794191739782877 0.01516542623467057
0 0 0
0 0 0
0 0 0
0 0 0
-0.4124056746902939 0.9108821476364998 0.01467217094912433
-0.4314483164483735 0.9019879210221984 0.01643595339236174
-0.4547718680391025 0.8903898851306105 0.01970787906707903
-0.4795300956849875 0.877172638686852 0.02488070078377066
-0.5058076967067784 0.8620431320902247 0.03225232345519199
-0.534032063862419 0.8444178031410543 0.04205149825250257
-0.5645374622726387 0.8236076617101212 0.05447819071109964
-0.5975410093637974 0.798803846606981 0.06969330509011835
-0.6331349119512659 0.7690482734091658 0.08777776731521099
-0.6712473130019198 0.733223791042581 0.1086734421873511
-0.7115742509387472 0.6900786166044101 0.1321120293777359
-0.7534947427713671 0.6383000546989197 0.1575395594359304
-0.7959881662740373 0.5766525898069329 0.1840506175503138
-0.8375821629784708 0.5041888933946135 0.2103560791558469
-0.876368800618195 0.4205222377428466 0.2348164663450467
-0.9101280103825109 0.3261132831238019 0.2555721645394631
-0.9365780055446717 0.2224835495529761 0.2707816642763548
-0.9537267798304836 0.1122478532405119 0.2789366395385735
-0.9602404343400579 -0.001110224445216545 0.2791721255070024
-0.9557083233904207 -0.1137045103444683 0.2714643345443281
-0.9407069393420802 -0.2218285887230629 0.2566369644045637
-0.9166429551343986 -0.3224715539652944 0.2361732196623577
-0.8854444752566096 -0.4136214537429692 0.211908881930652
-0.8492140886789645 -0.4943133775855994 0.1857140714352888
-0.809941527827151 -0.5644773422488623 0.1592483958747493
-0.7693233641367532 -0.6246860450378153 0.1338241627222839
-0.7286887013286494 -0.6758931701604786 0.1103684696205592
-0.6890029530470165 -0.7192169822567503 0.08945313368453521
-0.6509160909959516 -0.7557884203598618 0.07135899475534943
-0.6148269216087906 -0.7866607573366755 0.05614899225761272
-0.5809420983719494 -0.8127690740746421 0.04373454660842625
-0.5493152293594741 -0.8349261111977543 0.03392886137115883
-0.5198608992128235 -0.8538401430981879 0.0264887807137281
-0.4923870451681268 -0.8701191585516856 0.02115768588260179
-0.4670295498659409 -0.8840637982418008 0.017736972410658
-0.4468190513189322 -0.8944780930536965 0.01617641571768344
0 0 0
0 0 0
0 0 0
-0.3356224047388943 0.941896830020526 0.01370996114382746
-0.3645505790979394 0.9310643925980977 0.01489872864683006
-0.386093368995559 0.9222930661221102 0.01753312866362619
-0.4079709721056218 0.9127298266491051 0.02199885143110311
-0.4311575299312668 0.9018225602690279 0.0286226164664176
-0.4560908556964344 0.8891319858819489 0.03775503981875405
-0.4831909983403776 0.874101139566998 0.04973587166727888
-0.5128382467159804 0.8560296323781447 0.06488606318630163
-0.5453472498539167 0.8340422583532338 0.08348585723227038
-0.580935562249051 0.8070535209166424 0.1057283636988169
-0.6196672837323185 0.7737449612178794 0.1316479869263182
-0.6613662128119805 0.7325746327184413 0.1610252776683779
-0.7055028283214357 0.6818436499614291 0.1932744065770998
-0.7510712278405626 0.619849161565285 0.227330217122323
-0.7964891739794953 0.5451483871449814 0.2615687896647573
-0.8395744640948793 0.456933155876135 0.2938142445506535
-0.8776620152400404 0.3554607275458867 0.321491925524327
-0.9079076039948084 0.2424136927696407 0.3419640100451974
-0.9277594840812974 0.1210105420156424 0.3530138643428672
-0.9354818339810752 -0.004278065396319284 0.3533488877127935
-0.9305432344998911 -0.1284038202637479 0.3429311121320948
-0.9137091927081786 -0.2466053962928857 0.3229880642992814
-0.8868065975016358 -0.3551569041501729 0.2956985493066136
-0.8522754921399087 -0.4517652832320911 0.2636941682402252
-0.8126895801830267 -0.5355688765412656 0.229568344381933
-0.7703881646293446 -0.606852869818567 0.1955292054706886
-0.7272738743992686 -0.6666534275110855 0.1632357779532359
-0.6847570020503795 -0.716386494252622 0.1337843002575919
-0.64379500718391 -0.7575688153214017 0.1077844087871554
-0.6049763150047908 -0.791642820369581 0.0854710666864457
-0.5686122370699168 -0.8198875786011458 0.06681678164873021
-0.5348163006737037 -0.8433897048879179 0.05162683626530366
-0.5035624017806286 -0.8630502381052448 0.03961305364906977
-0.4747238474468289 -0.8796079269189316 0.03044936069375855
-0.4481095356480474 -0.8936613968929077 0.02381494834567833
-0.4234971666490996 -0.9056892224131822 0.0194211803140115
-0.4001372358022309 -0.916297975263803 0.01697683869288919
-0.3706176673431494 -0.9286456938444976 0.01611582939825189
0 0 0
0 0 0
-0.3054823166448836 0.9521036295323703 0.01338778729146646
-0.3206730131494549 0.9470652055435319 0.0153725432650653
-0.3385117283287574 0.9407707672287919 0.01897823257384528
-0.357916902835931 0.93342944204587 0.02459608477522025
-0.3789501296444234 0.9248408302201135 0.03265329999012227
-0.4018992628778131 0.9146458406908853 0.04358862931010205
-0.4271538880891444 0.9023262252620301 0.05785273627670653
-0.4551349671661638 0.8871818378489463 0.07589827569596257
-0.4862494647570171 0.868290089666834 0.09815181205599326
-0.5208449416640216 0.8444558421830899 0.1249595028233132
-0.5591423132766846 0.8141668186744558 0.156500047517926
-0.6011338291074551 0.7755773135206926 0.1926601937470049
-0.6464426405698444 0.7265545633891357 0.232874169609918
-0.6941544768931267 0.6648344440694847 0.2759433351035102
-0.7426560727781972 0.5883357248656752 0.319879715537645
-0.7895485254443013 0.4956562926617447 0.3618535138886229
-0.8317326102595599 0.3866997409395777 0.3983518236284124
-0.8657541674790031 0.2632579093480916 0.4256348137293393
-0.8884137460776573 0.1292635796150895 0.4404678680282554
-0.8974909589706946 -0.009552695863634149 0.4409293872805475
-0.8923023727581778 -0.1466330412790535 0.4269604510670521
-0.8738350173291929 -0.2758723861814562 0.4003833026386567
-0.8444031171513728 -0.3926978261766012 0.364378639688465
-0.8070152757418821 -0.4945727041714264 0.3226827931697256
-0.7647329097890032 -0.5808877647134196 0.2788422161221123
-0.7202191294774489 -0.6524662831943938 0.2357374701426103
-0.6755303764381905 -0.7109672113130936 0.1954081240556768
-0.6320990139275595 -0.7583794195321146 0.15909585985166
-0.5908227568476422 -0.7966795510666399 0.1273976565844454
-0.5521910151552951 -0.8276446072086754 0.1004464381656277
-0.5164061531108309 -0.8527773390381032 0.07807365146042951
-0.4834815339148643 -0.8733001613404936 0.05993692155922969
-0.4533141083338973 -0.8901830167721688 0.04561267187792725
-0.4257406398924039 -0.9041811349091038 0.03466096967037413
-0.4005973774782695 -0.9158659233860292 0.02667117428589036
-0.3778081834986332 -0.9256390146509831 0.02129298094254808
-0.3575296862705448 -0.9337234724266921 0.01824830059828559
-0.3410626423400929 -0.9398819702583219 0.01726719384638068
0 0 0
0 0 0
-0.2632222083006619 0.9646308008868392 0.0141946129830036
-0.2736284549816422 0.9616942037899222 0.01648414454032485
-0.2880677003781861 0.957384772826248 0.02077009290437594
-0.3046389694623315 0.9520740025236925 0.02738963313817991
-0.3229926498472496 0.9456858993100554 0.0367957605001319
-0.3432954397987964 0.9379223277133213 0.04949695132202932
-0.3659137740367133 0.9283018874318764 0.0660508573799333
-0.3913006941896795 0.9161364018045408 0.08705090473569586
-0.4199406949540544 0.900477402039243 0.1130940367046862
-0.4523013455413329 0.8800453064087809 0.144719561529788
-0.488764119971934 0.8531552253296383 0.1823068745845708
-0.5295155702271713 0.8176635804685424 0.2259192998890452
-0.5743869617568648 0.7709780385186126 0.2750863178816969
-0.6226441004873743 0.7101967931205551 0.3285343804985213
-0.672757658397371 0.6324601365971602 0.3839157572738939
-0.7222321535368937 0.53557923817597 0.4376477990717048
-0.7676257718189463 0.4189124122531672 0.4850392409894261
-0.8049074687361982 0.2842668545139994 0.5208803338554857
-0.8302025390466062 0.1363882382036422 0.5405201130765388
-0.8407524889947128 -0.01742784072493095 0.541139097290947
-0.835688070976453 -0.1687131115077062 0.5226483847033703
-0.8162195540351951 -0.3097004865231019 0.487720461184417
-0.7851603245718657 -0.4348576443125857 0.4409332079817881
-0.7460725799857747 -0.5414964580914317 0.38750134356903
-0.7024488109837078 -0.629465149968455 0.3321735885388317
-0.6571903429403333 -0.7003409217793273 0.2786098462496411
-0.6124172373516457 -0.7565701162908129 0.2292308585908169
-0.5695087931930238 -0.8008112577355877 0.1853673756618766
-0.5292518305402977 -0.8355403680881074 0.1475289570387237
-0.492009616818956 -0.8628706144476674 0.1156755794468665
-0.4578679124192472 -0.8845097783986881 0.08943951416428786
-0.4267453950929269 -0.9017900874205512 0.06828620649161517
-0.3984730479462608 -0.9157261471231583 0.05162221939622502
-0.3728573419182113 -0.9270744122685196 0.03886433705422262
-0.3497533659561969 -0.9363777558916201 0.02948357633807783
-0.3292001132981694 -0.943979156062388 0.02303558821071476
-0.311767064113062 -0.9499649050362986 0.01918272487675287
-0.2996367751297067 -0.9538899809883319 0.01765523038504272
0 0 0
0 0 0
-0.2133556907367732 0.9768486647516861 0.01568551570978648
-0.2224199891146479 0.9747853230824814 0.01797004021201594
-0.2344798596103704 0.9718556993388296 0.02270892114863178
-0.2482184248414493 0.9682339644788259 0.03017620915298511
-0.2634851160962767 0.9637999374292656 0.04080777140539039
-0.2805077398704207 0.9582652760735548 0.0551640149414562
-0.2996754416165001 0.9511742914310618 0.0739060011945747
-0.3214682837038906 0.9418589848067536 0.09777420575625079
-0.3464230882135621 0.929365954906872 0.1275537761597661
-0.3750977081815363 0.9123609088313229 0.1640100038212324
-0.408011475688801 0.8890198646038742 0.2077746761421027
-0.4455418686791797 0.8569295881968139 0.2591604216054278
-0.4877590247235053 0.8130450224933493 0.3178819359440913
-0.5341889753020533 0.7537888511677875 0.3826806848024713
-0.5835248198856515 0.675416778927414 0.450900165580735
-0.633363423792606 0.574774424052216 0.5181555122327184
-0.6801274339642127 0.4504666192308604 0.5783653676768464
-0.7193844806323331 0.3041826998661429 0.6244668559078953
-0.7466880572612885 0.1415446017805495 0.6499400517356563
-0.7587669347830114 -0.02829221018560362 0.6507474852220377
-0.7545356497707861 -0.1945468541372594 0.626759503135192
-0.7353590652001359 -0.3474930362783137 0.5818037770297301
-0.7044411738403825 -0.480581695122901 0.5223062960669558
-0.6657487573687789 -0.5911287372740767 0.4553519606092429
-0.6230354389562999 -0.679683045960674 0.387114710180523
-0.5792820690489773 -0.7487918996272688 0.3220915638928182
-0.5365505678726539 -0.8018258183515835 0.2630377256979413
-0.4960917140604321 -0.8421710119774102 0.2112841636884473
-0.4585477697796995 -0.8728062069607024 0.1671623998419928
-0.4241529069081196 -0.8961551314216458 0.1303851678222802
-0.3928920358685264 -0.9140948780702708 0.10033146085242
-0.3646128619032347 -0.9280330254362196 0.07623755396409879
-0.3391012150561074 -0.9390023323030354 0.05731479631762305
-0.3161356296685605 -0.9477473228360586 0.04281676904141234
-0.2955424582250708 -0.9547910356715106 0.0320738770279778
-0.2772912982538631 -0.9604732660528914 0.02450798054467097
-0.2617492196785822 -0.9649360921254209 0.01963884190510769
-0.2505523794005525 -0.9679515677012243 0.01712506237837472
0 0 0
-0.1230930022333733 0.9922635169671111 0.0161624780659896
-0.1528285638270112 0.9881129011775506 0.01662301431920613
-0.1669219202083687 0.9857830279226947 0.01920662420922221
-0.1780100460070885 0.9837248446467323 0.02445104384921035
-0.1890072782064896 0.9814313457969021 0.0326919297725874
-0.2008289483878562 0.9786191469866293 0.04441056901897135
-0.2139776504228557 0.9749793561694241 0.06023968926686898
-0.2289056312386471 0.9700770866986769 0.08094848886448339
-0.2461038935542331 0.9632717776843009 0.1074260484909163