# OOMMF: rectangular mesh v1.0
# Segment count: 1
# Begin: Segment
# Begin: Header
# Title: 
# Desc: time = 3.1999999999999997e-09
# Desc: stepsize = 2.9526678566496926e-14
# Desc: step = 20478
# meshunit: m
# valueunit: (none)
# valuemultiplier: 384000.0000000001
# xmin: 0
# ymin: 0
# zmin: 0
# xmax: 9.357999999999999e-08
# ymax: 9.357999999999999e-08
# zmax: 2.3395e-08
# ValueRangeMaxMag: 1
# ValueRangeMinMag: 0
# meshtype: rectangular
# xbase: 1.16975e-09
# ybase: 1.16975e-09
# zbase: 1.16975e-09
# xstepsize: 2.3395e-09
# ystepsize: 2.3395e-09
# zstepsize: 2.3395e-09
# xnodes: 40
# ynodes: 40
# znodes: 10
# End: Header
# Begin: Data Text
0 0 0
0 0 0
0 0 0
0 0 0
0 0 0
0 0 0
0 0 0
0 0 0
0 0 0
0 0 0
0 0 0
0 0 0
0 0 0
0 0 0
0 0 0
0 0 0
-0.9864607910417408 0.1633429042831709 0.01463568780895599
-0.9911314433951212 0.1319636135142647 0.01562263171686485
-0.9958496287448436 0.08955312284621476 0.01624053931515282
-0.9989450051798214 0.04286424794086209 0.01647825460265705
-0.9998510654170469 -0.005029445380787662 0.01650913878908111
-0.9985175719534343 -0.0518470816089359 0.01656920724879727
-0.9953858839719961 -0.09444716227496122 0.01693149513464464
-0.991879969976307 -0.1259297517207821 0.01777140375271252
0 0 0
0 0 0
0 0 0
0 0 0
0 0 0
0 0 0
0 0 0
0 0 0
0 0 0
0 0 0
0 0 0
0 0 0
0 0 0
0 0 0
0 0 0
0 0 0
0 0 0
0 0 0
0 0 0
0 0 0
0 0 0
0 0 0
0 0 0
0 0 0
0 0 0
0 0 0
0 0 0
0 0 0
-0.9270944517078614 0.3744554821373918 0.01670238036186068
-0.938462631993866 0.3449170929003292 0.01789098589598767
-0.9526511648907134 0.3035118719326079 0.01833852852139949
-0.9669228319921795 0.2544413412435488 0.01788409456490963
-0.9807779992760776 0.1943824857810294 0.0170283691997043
-0.9892850979403729 0.1449452993302132 0.01748871622449779
-0.9952478846029832 0.09569259921106378 0.01801595541505199
-0.9988045353435971 0.04532701896802889 0.01830195422714297
-0.9998157246131899 -0.005582501908870932 0.01836715788135318
-0.9982530932952804 -0.05616547136893536 0.01833579974554509
-0.9942159002035077 -0.1058251896310538 0.01832411040349144
-0.9876157662956384 -0.1558298068667672 0.01822551662214553
-0.9761081076284346 -0.2166055735769447 0.01717520647440806
-0.9636626001502363 -0.2666679507270023 0.01557552974207181
-0.9509237114181164 -0.3090773059095782 0.01467358287778281
-0.9405547133420721 -0.3393138907360238 0.01493033032432123
0 0 0
0 0 0
0 0 0
0 0 0
0 0 0
0 0 0
0 0 0
0 0 0
0 0 0
0 0 0
0 0 0
0 0 0
0 0 0
0 0 0
0 0 0
0 0 0
0 0 0
0 0 0
0 0 0
0 0 0
0 0 0
0 0 0
-0.8774196874003594 0.4794708235441318 0.01556989184828022
-0.8926026371316852 0.4505378110984056 0.01661965571898958
-0.9146118142097581 0.4039544099359441 0.01749468494249952
-0.9322122211995589 0.361422011033849 0.0188282921804415
-0.9486464075584431 0.3157160861119595 0.01983296237594025
-0.9638297348977453 0.2657391802194688 0.02036983611191118
-0.977211035955202 0.2112530680236612 0.02075409496823096
-0.9872861507398543 0.1575025633407993 0.02142426424311031
-0.9943805840045015 0.1035434048219927 0.02204580397115665
-0.998546782353923 0.0490155392761989 0.02240090087674208
-0.9997309135476407 -0.005875269744907691 0.02244062616380597
-0.9979064644209474 -0.06074440288125493 0.0221992293894077
-0.9930852437573104 -0.1153715054676002 0.02170516891484677
-0.9852069323068319 -0.1700923787296393 0.02087781675975802
-0.9739771784706441 -0.2258040622881122 0.01951874157184943
-0.960648732905377 -0.2771881225733551 0.01790968094499148
-0.9457844044584512 -0.3243664866264095 0.01668060660801745
-0.9295528530121472 -0.3683373579988066 0.01609609143350324
-0.9091012425510459 -0.4162773352807352 0.01575153718575712
-0.8948473049087492 -0.4460909639882967 0.01584779939106264
0 0 0
0 0 0
0 0 0
0 0 0
0 0 0
0 0 0
0 0 0
0 0 0
0 0 0
0 0 0
0 0 0
0 0 0
0 0 0
0 0 0
0 0 0
0 0 0
0 0 0
0 0 0
0 0 0
-0.8397390042905816 0.5427584624007579 0.01586367439866381
-0.8611487723789268 0.5080816875816 0.01660694356285787
-0.8820726331497774 0.4707646939663306 0.01812381756156157
-0.903861821148917 0.4273625508552668 0.01987607596689514
-0.9239909354887363 0.38179124700151 0.02182188918680551
-0.9425311056816315 0.3332805088990269 0.02364777390297361
-0.9592459591003892 0.2814453581202447 0.02521309862236222
-0.9736614053919239 0.2264452204077709 0.02657122136257358
-0.9850799741216818 0.1698393918664648 0.02778534784477938
-0.9932857676331732 0.1120673336772557 0.02871056495173566
-0.9981440179125128 0.05343834007236985 0.02920382364989473
-0.9995576259146732 -0.005651265546465156 0.02919958344813597
-0.9974885945403343 -0.06475418980483584 0.02869492402267132
-0.9919634020810639 -0.1234536809198368 0.02770916092385375
-0.9830594450276375 -0.1813971184702872 0.0262528656079514
-0.9709418783885867 -0.2380716744249057 0.02436691666510081
-0.9562142777208139 -0.2918181070085019 0.02228110196637258
-0.9393435648281767 -0.3423737321245512 0.02034440382508347
-0.9206136650485057 -0.3900238198149678 0.01875898992213162
-0.9000581426335114 -0.4354172143832837 0.01752681653393726
-0.8801265467402516 -0.4744423813036363 0.01678357965435195
-0.8597937330070684 -0.5103748527178242 0.01649989075808069
0 0 0
0 0 0
0 0 0
0 0 0
0 0 0
0 0 0
0 0 0
0 0 0
0 0 0
0 0 0
0 0 0
0 0 0
0 0 0
0 0 0
0 0 0
0 0 0
-0.7655478052333872 0.6431613483761596 0.01673433169575079
-0.7861680941199196 0.6177663282069769 0.01744968542760014
-0.8175348945255247 0.5756068872908714 0.0177033199274235
-0.8435796118137784 0.5366615371519571 0.01917897478524026
-0.8679602527786232 0.4961692570648563 0.02147249264003015
-0.891655166007994 0.452067663201611 0.02420522296304168
-0.9140381909994342 0.4047185862437047 0.02714868953335121
-0.9347563543610451 0.3540153980737549 0.03006087005275402
-0.9534031043797234 0.2999152060583315 0.03276262709390284
-0.9694769906859872 0.2426498568100916 0.03514842130855727
-0.9824263895065031 0.1829220117351747 0.03712043674275171
-0.9918627882251821 0.1213396041793269 0.03853452726803849
-0.9975153722671717 0.0584957905629321 0.03925970678829277
-0.9992180898081742 -0.004982153892743373 0.03922227865246715
-0.9969154560538394 -0.06844017229894653 0.03841244976118088
-0.9906672871286046 -0.1312203580599149 0.03687199267571201
-0.9806508751578047 -0.1926675805899469 0.0346852193570595
-0.9671769754401616 -0.2520815004252678 0.03199398883799774
-0.9507341051318282 -0.3086455387436618 0.0290274482656622
-0.931809956623548 -0.3620100982098537 0.02605558541488691
-0.9108408944278185 -0.4121002753581383 0.02328579154070693
-0.8882449818670993 -0.4588975148632792 0.02083081948033111
-0.8647169072616949 -0.5019094387402729 0.01875061596835754
-0.8394828229641154 -0.5431225521290838 0.01692581805968436
-0.8092135459500314 -0.587324877031731 0.01493070228214964
-0.7891563914742058 -0.6140314840678702 0.01405440745169949
0 0 0
0 0 0
0 0 0
0 0 0
0 0 0
0 0 0
0 0 0
0 0 0
0 0 0
0 0 0
0 0 0
0 0 0
0 0 0
-0.7182225267975663 0.6956382861911945 0.01561335279483924
-0.7435005398345963 0.6685245757104421 0.01678805935289789
-0.7691230130156993 0.638834880962833 0.01843327737692451
-0.7973962732292508 0.6031107240894533 0.02041171057007838
-0.8248207001954544 0.564918456045854 0.02319376096815819
-0.851470612769991 0.5237209205725061 0.02672438855768213
-0.877379420684522 0.4788094227605794 0.0307715588648436
-0.9021279985565637 0.4300395441169809 0.03508653183184494
-0.9252335423436431 0.3773456083110266 0.03941045560019356
-0.9461551582083907 0.3207775481520982 0.04349920915583116
-0.9642984964880633 0.2605897176424124 0.04713182290032608
-0.9790612843134413 0.1973048229143756 0.05009798811570156
-0.989929919893661 0.1315839745563672 0.05219589389289647
-0.9965150763416776 0.06419249512309198 0.05326374182886239
-0.9985751997244101 -0.00402578448490244 0.05321055867621612
-0.9960332367092936 -0.0721853323656781 0.05202950280047169
-0.9889832454886306 -0.1394004917453847 0.0497960143376889
-0.9776858642876451 -0.2048248107156071 0.04665991521033191
-0.9625542028579247 -0.2676831922435771 0.04283824402134693
-0.9441254340359438 -0.3273178926852158 0.03860261564388257
-0.9229752776423612 -0.3833331080293989 0.03423981818770114
-0.8996701538408556 -0.4355384473931798 0.02999791876628664
-0.8747562455169478 -0.4838620753613357 0.02605768516414827
-0.848747093109782 -0.5283187915368986 0.02253056694105881
-0.8217545611641985 -0.5695094865919146 0.01945214352323476
-0.7938535648215028 -0.6078743678123286 0.01688995491270752
-0.7684889949920498 -0.6396791190353558 0.01533914098831429
-0.7437117886480906 -0.6683339368670977 0.01491724698405674
0 0 0
0 0 0
0 0 0
0 0 0
0 0 0
0 0 0
0 0 0
0 0 0
0 0 0
0 0 0
0 0 0
-0.6645203269835036 0.7471212435844083 0.01491919604482283
-0.6915378571505257 0.7221619228016263 0.01604834518311113
-0.7184487540252725 0.6953445370772843 0.01809316435315051
-0.7460210926078497 0.6655935556357071 0.02092243007889375
-0.7747136549891109 0.6318378470574674 0.0244885238264068
-0.8035878885943439 0.5944845228547012 0.02889043770353506
-0.8323023532922804 0.5532735410180645 0.03407611353225892
-0.8605520189967739 0.5078005843426411 0.03985961793404289
-0.887853828308716 0.4578223171726051 0.04598157735727409
-0.9136136804954292 0.4032266814839659 0.05213718587556417
-0.937154816672735 0.3440597233861084 0.05799789936339222
-0.957745482141744 0.2805811181090933 0.06322837652295356
-0.9746508315613899 0.2133055486132238 0.06750184788212864
-0.9872100795786983 0.1429775868174054 0.0705242401312518
-0.994902432983172 0.07053408105554627 0.07207005101853092
-0.997399135904828 -0.00295063177080212 0.07201567515794753
-0.9945967077905694 -0.0763355830936836 0.0703581381640196
-0.9866267028180674 -0.1484916421633591 0.0672159318463797
-0.9738405181923295 -0.2183780062854156 0.06281473949401815
-0.9567713833044008 -0.2851080312192976 0.05746242793372573
-0.936077360084719 -0.3480019882941253 0.05151496947643389
-0.9124684091817438 -0.4066279459169464 0.04533338554202761
-0.8866508250543077 -0.4607715461485814 0.03924151743192559
-0.8592920507049921 -0.5103870101195144 0.03350032084131693
-0.830984348563865 -0.5555753125896886 0.02830343588255848
-0.8021721895314052 -0.5966184974992148 0.02379383920619293
-0.7733414871217738 -0.6336703099022382 0.02012169586997768
-0.7455497637714683 -0.6662200976170545 0.01750232188680808
-0.7185640416833925 -0.6952768459206381 0.01599454676683229
-0.691898868460748 -0.7218288457055979 0.01546199631548876
0 0 0
0 0 0
0 0 0
0 0 0
0 0 0
0 0 0
0 0 0
0 0 0
0 0 0
-0.6100562782636033 0.7922358289852268 0.0139186430103914
-0.6357553568014346 0.7717400558771373 0.01524507963353701
-0.6623154090192328 0.7490220673361146 0.01744252330423117
-0.6899511265948656 0.7235611050098866 0.02065841783261026
-0.7187007956155445 0.6948730656144305 0.0249116251012656
-0.7485249535422179 0.6624186032254488 0.03019913948219332
-0.7790258343427015 0.6259274827237798 0.03651760941969438
-0.8098460488286472 0.5850067087160621 0.04377816754762728
-0.8405704633777349 0.5392214821074545 0.05178309889123677
-0.8706381956247277 0.4882219167685314 0.06023696793646744
-0.8993456609673348 0.4317974800714401 0.06876276829201397
-0.9258688474919319 0.3699322838874432 0.07692192523449548
-0.9493021424573364 0.3028679314564071 0.08424047970677441
-0.9687230137136607 0.2311527925722827 0.09024471833607386
-0.9832808668587485 0.1556500087610148 0.09450826229596694
-0.9922908495098967 0.07750390709669189 0.09670581349471424
-0.995315526344368 -0.001935409124745063 0.09666052560043653
-0.9922183185464601 -0.08122049715111254 0.09437181350043412
-0.9831776187271554 -0.1589302363488403 0.09001638744196115
-0.9686590837885359 -0.2337872825018175 0.08392309535740872
-0.9493529571413819 -0.3047497537449756 0.07652810176196415
-0.9260902772023728 -0.3710649864663103 0.06831964790591745
-0.8997550016873935 -0.4322812033719307 0.05978208887144515
-0.8712122890078372 -0.4882134208883149 0.05134981155031881
-0.8412581824264581 -0.5388904034561537 0.04337975983561079
-0.8105845661122617 -0.5845050737049908 0.03614526239659951
-0.7797633292421609 -0.6253624377536928 0.02984915100868383
-0.7493191974601041 -0.6617500069283653 0.02465093604821337
-0.719822288878334 -0.69385026091813 0.02068061550821634
-0.6915207958340812 -0.7221324129801112 0.01799352807317748
-0.6646097519600299 -0.7470066371230973 0.01658196893218051
-0.6391295613040301 -0.7689233549033389 0.01644013842737259
0 0 0
0 0 0
0 0 0
0 0 0
0 0 0
0 0 0
0 0 0
0 0 0
-0.5832930980628476 0.8121285736251372 0.01470855716394175
-0.6038231319760343 0.7969437571715139 0.01668152259247122
-0.6295785465876012 0.7766811081423872 0.01993263483226588
-0.6576068781733607 0.7529630990490731 0.02449010513455642
-0.6872516594066591 0.7257832048561947 0.03039566073412446
-0.7182851290453428 0.6947287857679908 0.03766148719378448
-0.7504413863196956 0.6593163615262487 0.04625647114038676
-0.7833930554157763 0.618992759639706 0.05606500013337219
-0.8166927510623173 0.5731866702953596 0.06685799397216299
-0.8497194382914773 0.5213912769062137 0.07828162335901979
-0.8816633766976992 0.4632440049677107 0.08985923464778459
-0.9115401634010621 0.3986126442696898 0.101007377627033
-0.9382354669434714 0.3276853495550237 0.1110698890625514
-0.9605864730583833 0.2510451073384249 0.1193732878775394
-0.9774973204495481 0.1697010858622083 0.1253017556586516
-0.9880706120789015 0.08505756113676799 0.1283809831691946
-0.991727961414599 -0.00118639030701347 0.1283520277458935
-0.9882906455885734 -0.08719399857887351 0.1252150408455285
-0.9779997887320361 -0.1711741659011113 0.11923010596385
-0.9614719500405912 -0.2515520113816107 0.1108750416234804
-0.9396038630631776 -0.3270925474893496 0.1007722476363428
-0.913451997965206 -0.3969593178313855 0.08960327784301995
-0.8841146693580906 -0.4607088215660809 0.07802969407236386
-0.8526380468637778 -0.5182357541109223 0.06663380674556434
-0.8199536534407352 -0.5696953513537494 0.05588571244171257
-0.7868455251306341 -0.6154231198782167 0.04613570310787786
-0.7539480540275351 -0.6558556328178896 0.03762606449175655
-0.7217858302163757 -0.6914435488816291 0.03051284989696727
-0.6908268421570118 -0.7225918919729961 0.0248843687936087
-0.6615119687172135 -0.7496469269803407 0.02077017363450416
-0.6347192103311932 -0.7725291150124749 0.01817389596614282
-0.6136145453080873 -0.7894203082952294 0.01711042481686873
0 0 0
0 0 0
0 0 0
0 0 0
0 0 0
0 0 0
0 0 0
-0.5062702941287864 0.8622247460997128 0.01608963940047443
-0.5390003648917018 0.8421426334449001 0.01656476927397219
-0.5653147016642023 0.8246540308843819 0.01910542929259698
-0.5923242607329234 0.80535814839552 0.02345683184350641
-0.620955582785108 0.783289337760197 0.02952926614729655
-0.6513363398154296 0.7578698492710687 0.03733984469285131
-0.6834405510250028 0.7284974372600863 0.04690945661726078
-0.7171280429533712 0.6945063716380517 0.05820884609761229
-0.7521324270758959 0.655163967129491 0.07111250463925833
-0.7880163140635217 0.6097081848794736 0.08535934665118987
-0.8241220275827508 0.5574206475039136 0.1005241532628492
-0.8595421776695581 0.4977251288107482 0.1160040557799467
-0.8931216275359435 0.4303087249394966 0.1310273241293256
-0.9235030136951092 0.3552547994265151 0.1446935077343714
-0.9492265022083165 0.2731611205556855 0.1560514329383951
-0.9688826386626116 0.185204578075985 0.1642123526348452
-0.9812968963491298 0.09311569600938932 0.1684810623549463
-0.9857056047908623 -0.0009548802694007736 0.1684741786967681
-0.9818759015802596 -0.09466236179116719 0.1641912030410577
-0.9701345808175421 -0.1857366690770633 0.156015335342808
-0.9512991189240761 -0.2722281776284942 0.1446437196678257
-0.9265352339769675 -0.3526747371087113 0.1309694239299652
-0.8971839488171854 -0.4261651765315393 0.1159491453036331
-0.8646007898574911 -0.4923085172097624 0.1004878005557235
-0.8300349995566648 -0.5511404167640094 0.08535889244923814
-0.7945573815369334 -0.6030042063099094 0.07116526271803726
-0.7590320893527901 -0.6484345774323224 0.05833426199844136
-0.7241239726934604 -0.6880571709948236 0.04713599063602973
-0.6903321950948371 -0.7225090048516511 0.03771204481090575
-0.6580276480809355 -0.7523917984651233 0.03010308893600658
-0.6274661002112892 -0.7782656391661681 0.02426701421500646
-0.598756588135647 -0.8006793168180202 0.02007933723972797
-0.5712501540660987 -0.8205943224410378 0.01726903173290266
-0.5383292115850492 -0.8425953215900838 0.01532266258591604
0 0 0
0 0 0
0 0 0
0 0 0
0 0 0
-0.4419726999530221 0.8968978561422407 0.01530908696453409
-0.4703014083160836 0.8823557457090011 0.01627646614656034
-0.4976901682529186 0.8671627280381261 0.01825649270413061
-0.5239742075977476 0.8514490797588004 0.02203393633020754
-0.5510728959712254 0.8339938809366134 0.02780053751588447
-0.5798256434742014 0.8139605832729684 0.03564255949923665
-0.6105609929660208 0.7906524988063337 0.0456497535551528
-0.6433996583542043 0.7633382404046506 0.05789309428268805
-0.6783183083130152 0.7311946254662141 0.07237881110305303
-0.7151345880045064 0.6932980242350544 0.08899646415107755
-0.7534565512051251 0.6486558029684092 0.1074656909040571
-0.7926207679335188 0.5962803110033782 0.1272875050827582
-0.8316412471514967 0.5353079601797146 0.1477099312996098
-0.8691908512437854 0.4651626792632224 0.1677228247280728
-0.9036394334387244 0.3857493172953375 0.186100076681128
-0.9331701778197263 0.2976399824984939 0.2015039951122463
-0.9559793144276665 0.202194434043243 0.2126522072030773
-0.9705336024683295 0.1015507825694172 0.2185222300805683
-0.9758261117417203 -0.001551336906530464 0.2185428859442403
-0.9715541971782287 -0.1040968845414626 0.2127117311624535
-0.9581608951663364 -0.2031911622558071 0.201596256302488
-0.936728827103593 -0.2964150247824163 0.1862182524790885
-0.9087684203367185 -0.3820497865404645 0.1678627975552966
-0.8759710057253436 -0.459138870775521 0.1478725615910829
-0.8399917921593959 -0.5274114928022064 0.1274790428462405
-0.8022997382815445 -0.5871256622916694 0.107696734546284
-0.7641006704929562 -0.6388889532631625 0.08928085321341257
-0.7263204366863585 -0.6834972161020016 0.07273361556082951
-0.6896282747974494 -0.7218097932179213 0.05833922363723031
-0.654480333601387 -0.7546655968067001 0.0462096302236218
-0.6211612767626842 -0.7828403107201158 0.03632789784977719
-0.5897988151757296 -0.8070442879591627 0.02858102324607889
-0.5603072047165671 -0.8279715993244222 0.02277865349103603
-0.5321001361338512 -0.8464756722171113 0.01866497979976975
-0.5035231674260586 -0.8638336348280707 0.01599597464838443
-0.4748592293077891 -0.8799361104813864 0.014871241108307
0 0 0
0 0 0
0 0 0
0 0 0
-0.4121774497567073 0.9109778342651315 0.01513721868994231
-0.4312406003463999 0.902078524309112 0.01690800381982463
-0.4545899341719013 0.8904718280548271 0.02019691041421965
-0.4793759850661343 0.877242028370663 0.02539859448861873
-0.5056843233823525 0.8620943855963372 0.03281212289086843
-0.533943861867726 0.8444427066998978 0.04266693655664488
-0.5644901033366885 0.8235945263343867 0.05516320718532472
-0.5975407837710575 0.7987366347881595 0.07046133675680467
-0.6331877839100813 0.7689057558679695 0.08864067294502065
-0.6713575563687282 0.7329789302698749 0.1096399529689752
-0.7117425896511309 0.6896985279903762 0.1331856845333202
-0.7537160413335373 0.6377470443194279 0.1587162137222732
-0.7962489361157317 0.5758868559724046 0.1853158408037046
-0.8378584878045389 0.503173352448679 0.2116830928521407
-0.8766256259643365 0.4192294427809006 0.2361655906525127
-0.9103208816789695 0.3245334475062016 0.2568928450326367
-0.9366579395812421 0.2206315222058773 0.272017711975781
-0.9536478687160886 0.1101661837593421 0.2800342022845851
-0.959968329143581 -0.003354361418012123 0.2800884776294054
-0.9552268292979599 -0.1160285852688715 0.272174708578644
-0.9400204075848372 -0.2241475266187533 0.25713716113143
-0.9157739008194996 -0.3247099686520056 0.2364774806104173
-0.884427776270025 -0.4157218872089306 0.2120443846403464
-0.8480900697561355 -0.4962392903575111 0.1857142974746593
-0.8087499391259881 -0.5662116823228052 0.1591473115226534
-0.7680992864354409 -0.6262272535867646 0.1336522092692206
-0.727460473293177 -0.6772504220691096 0.1101504680120765
-0.6877916688436787 -0.7204058631225424 0.08920769388282247
-0.6497360704423862 -0.7568275815033738 0.07109887932900176
-0.613686627540354 -0.7875696350063425 0.05588195767975836
-0.5798451348510906 -0.8135665129133108 0.043464337744817
-0.5482611959209792 -0.8356296563649044 0.03365617997884573
-0.5188459984361113 -0.8544657699563195 0.02621217045168918
-0.4914044577294746 -0.8706812955373304 0.02087439879460708
-0.4660699035542901 -0.8845759133570704 0.01744415401785092
-0.4458717624015083 -0.8949560855883515 0.01587376330136552
0 0 0
0 0 0
0 0 0
-0.3352999806216477 0.9420047857600105 0.01417415254463999
-0.36426198601148 0.9311697525917263 0.01536546143905092
-0.3858268086780094 0.9223953894308051 0.0180116424052719
-0.4077252153818869 0.9128273947418049 0.02250102554734713
-0.4309339923402441 0.9019121150265664 0.02916215036658582
-0.4558927171305127 0.8892082598492606 0.03834711310134556
-0.4830231417488735 0.8741560525804892 0.05039682799486679
-0.51270705997024 0.8560512739321345 0.06563297232216407
-0.5452601483019084 0.8340136968371198 0.08433578221526707
-0.5809001251122714 0.8069515248387261 0.1066971471268154
-0.6196898528349389 0.7735388522899813 0.1327483720853455
-0.6614498143704903 0.7322256931156391 0.1622642209809823
-0.7056443772000077 0.6813057698042204 0.1946495850432029
-0.7512582434230711 0.6190716352518626 0.2288260520908089
-0.7966966923551907 0.5440817603921497 0.2631528422777859
-0.8397634180649853 0.4555384488292029 0.2954354808043465
-0.8777807362636352 0.353720964038068 0.323082742721504
-0.9078977443597265 0.2403446373460857 0.3434474356950399
-0.9275661055952793 0.1186660188480014 0.3543155313016525
-0.9350650543511934 -0.006810231665036096 0.3544107290642702
-0.9298871695640585 -0.1310155736730883 0.3437219389786673
-0.9128246149540863 -0.2491875051166896 0.3235070472611739
-0.8857266583166146 -0.3576164083933049 0.2959709296453884
-0.8510469613679097 -0.4540360270310623 0.2637619299753004
-0.8113632901891038 -0.5376137980688274 0.2294798802935053
-0.7690114775871706 -0.6086601119388528 0.1953310407328516
-0.7258862601102025 -0.66822953759861 0.16296755034046
-0.6833884234843041 -0.7177494183952283 0.1334767209701678
-0.6424662030726993 -0.7587421705820725 0.1074592782860266
-0.6037000484110474 -0.7926518935755864 0.0851423934332097
-0.5673948336042702 -0.8207568921449503 0.06649230628986059
-0.5336590744662669 -0.8441417665629775 0.05130955255839144
-0.5024627894363876 -0.8637050742180106 0.03930254447061059
-0.4736762100838799 -0.8801830791128334 0.0301429136618037
-0.4471057071260153 -0.8941721516607142 0.0235085059030519
-0.4225269209628472 -0.9061488845323501 0.01911020990027938
-0.3991887199486154 -0.9167174645123916 0.01665701425097562
-0.3696770683281592 -0.9290262591324431 0.015782109956385
0 0 0
0 0 0
-0.3051263391449746 0.9522111575351506 0.01385022113735969
-0.3203300347030945 0.9471735538945645 0.01584069663411204
-0.3381819672095982 0.9408794558986746 0.01946295255246913
-0.3576003033076518 0.9335370733986894 0.02511086745782903
-0.3786479854626141 0.9249446223212681 0.03321368308498884
-0.4016145326040394 0.914740981890964 0.04421202608333458
-0.4268913181801876 0.9024049704750615 0.05855827630902979
-0.4549010354212835 0.8872323061114995 0.07670647276934392
-0.4860520599374719 0.8682947548449035 0.09908387224653938
-0.5206926357871337 0.8443897777715496 0.126036035450026
-0.5590430294639757 0.8139959053851452 0.1577388893835555
-0.6010926745456319 0.7752568901951604 0.1940730553490292
-0.6464587519744049 0.7260293939507764 0.2344619395875636
-0.6942169924139573 0.6640413211676105 0.2776902793143712
-0.7427399310972829 0.5872102478976786 0.3217476021939397
-0.7896116591756426 0.4941448212926234 0.3637778488082659
-0.831716896331319 0.3847755884757652 0.4002433645547741
-0.865592327232414 0.2609375168217081 0.4273892082765936
-0.888042331704097 0.1266153504348559 0.4419834500700321
-0.896865886689991 -0.01241374891126032 0.4421283525513192
-0.8914106329994047 -0.1495657634837637 0.4278050558012597
-0.8726971958923246 -0.2787376747912668 0.40088017278687
-0.8430661603049981 -0.3953831192060982 0.3645704848111581
-0.8055397588785576 -0.4970047350134564 0.3226329032198643
-0.7631804421388472 -0.5830327479313995 0.2786187853973852
-0.7186435642993408 -0.6543219130587741 0.2354023397977281
-0.6739736412278755 -0.712551909625214 0.1950110433270358
-0.6305905315592608 -0.7597225955208581 0.1586731211102212
-0.5893809057261176 -0.7978144685654127 0.1269733110269578
-0.5508253554433912 -0.828603950761196 0.1000345969332552
-0.5151196351882167 -0.8535909048248661 0.07768094131654282
-0.4822723281566824 -0.8739939668563006 0.05956464885416902
-0.452176951736958 -0.8907792472363755 0.04525855732199548
-0.4246677387258526 -0.9046985222218707 0.03432048331585385
-0.3995789543065844 -0.9163203254061949 0.02633857480466681
-0.3768327528468788 -0.9260440932056681 0.0209621998066598
-0.3565840886630157 -0.9340914732501098 0.01791388606096766
-0.3401322669298105 -0.940225264636538 0.01692609619314241
0 0 0
0 0 0
-0.2628151218733785 0.9647349095700113 0.01465489582435135
-0.2732254906988495 0.9618006198066633 0.01695284553962518
-0.2876692950610231 0.9574938120135406 0.02125974211677663
-0.3042448195093282 0.9521847677601333 0.0279151902611597
-0.3226032909277742 0.9457961014961019 0.03737447093062786
-0.3429129013652058 0.9380276550142125 0.05014838487761757
-0.3655418604412219 0.9283950240881258 0.06679691245542521
-0.390945054982587 0.9162056578136524 0.0879156219048344
-0.4196086525709944 0.9005049031799571 0.1141030150189271
-0.4520013445279086 0.8800047506262327 0.1458986751832386
-0.4885045624076354 0.8530093754963013 0.1836798786539613
-0.5293027379286627 0.8173619872587057 0.2275038316286563
-0.5742217350333767 0.7704560380437242 0.2768878698268046
-0.6225174275084356 0.7093775541150602 0.3305382552232245
-0.6726453729150613 0.6312621446874729 0.3860781099473649
-0.7220909067268974 0.5339312824780916 0.4398887450408647
-0.7673931558119602 0.4167756794239965 0.4872430373577707
-0.8045096642397884 0.2816585603832154 0.5229078843425838
-0.8295703025663554 0.13339560784058 0.5422349351607724
-0.83984093034981 -0.02065470387788272 0.5424394850274838
-0.8344911341413789 -0.1719914420945394 0.5234916340168918
-0.8147715845510857 -0.3128559593948029 0.4881274563874377
-0.7835246266153032 -0.4377577825946936 0.4409731094580779
-0.744323921600929 -0.5440647679813236 0.387266610972392
-0.7006579223780752 -0.6316768703086755 0.3317571511299722
-0.6554146591902299 -0.7022087701547344 0.2780907543165169
-0.6106978876862742 -0.7581284375386949 0.2286686733478362
-0.5678717049001116 -0.802103337054776 0.1848024985205336
-0.5277106798564438 -0.836610186741882 0.146985828586168
-0.4905690835221244 -0.8637584288665563 0.115166622136105
-0.4565264784463682 -0.8852503263343806 0.08896872597845708
-0.4254974437385152 -0.9024123387076207 0.06785201780515163
-0.3973102947454135 -0.9162538306883022 0.05121960013827098
-0.3717697209883961 -0.9275268619481742 0.03848629523326122
-0.3487295095271153 -0.9367708495302753 0.02912223644061453
-0.3282275058273097 -0.9443263119902755 0.02268305317252971
-0.3108318508628082 -0.9502783362398304 0.01883199836607568
-0.2987229173693742 -0.9541830356836639 0.01730182221145253
0 0 0
0 0 0
-0.2128854922991658 0.9769438050208844 0.01614214979044529
-0.2219499939583919 0.9748837110560825 0.01843773574465877
-0.2340074309562434 0.9719579312663096 0.02320133844790102
-0.2477410510377825 0.9683394557227505 0.03070944677556556
-0.2630014569634115 0.9639067545506796 0.04140050925650533
-0.2800179930542573 0.9583694870771813 0.05583770952757171
-0.2991815220899346 0.9512689215491376 0.07468504358096069
-0.3209738994285817 0.9419325074337495 0.09868590236289763
-0.3459336604610662 0.9294002153804081 0.1286279215833731
-0.3746199885125377 0.9123284232345958 0.165277682598534
-0.4075526214403961 0.8888805921685978 0.2092657488053487
-0.4451076314900208 0.8566276461928847 0.2608989692723626
-0.4873506689602461 0.8125065063858171 0.3198788873069217
-0.5337986992982148 0.7529229951872143 0.3849232546181744
-0.5831300928605387 0.6741238401002029 0.453339103772237
-0.6329220004131232 0.5729638330063529 0.5206939479768494
-0.6795766537617844 0.4480860648018599 0.5808566520169314
-0.7186493001346512 0.3012512798048784 0.6267302847572458
-0.745699512184718 0.1381736428789572 0.6517977308498636
-0.7574855540942661 -0.03190889794490905 0.6520716659773242
-0.7529677830427982 -0.1981768377211378 0.6275073375590623
-0.7335562095367306 -0.3509235240824259 0.5820205904396117
-0.702483338049239 -0.4836631421895004 0.5220987690567535
-0.6637222853188893 -0.5937882304803536 0.4548497172848202
-0.621015704538972 -0.6819123419396301 0.3864389377720268
-0.577325156797456 -0.7506246208899028 0.3213383603659578
-0.5346924632241564 -0.8033157603708952 0.2622742055769378
-0.4943515684229789 -0.8433768082466357 0.2105518608548911
-0.4569323723962853 -0.8737826517644008 0.1664832860435956
-0.4226607778445051 -0.8969494055244456 0.1297676030495319
-0.3915165567089537 -0.9147457215790764 0.09977500025326327
-0.3633444173870574 -0.9285713900619448 0.07573643714941146
-0.337928526069965 -0.9394526147276301 0.05686031964032189
-0.3150465025897816 -0.9481287041453048 0.04239883939085037
-0.2945241298606125 -0.9551187287704517 0.03168202774073493
-0.2763304874345556 -0.9607596492681004 0.02413209589771963
-0.2608318266140128 -0.9651919139604463 0.01926985860267266
-0.249662081117305 -0.9681880366094775 0.01675622327555736
0 0 0
-0.1225182385505774 0.9923273066246946 0.01660715958382476
-0.1522832303464429 0.9881894118204427 0.01707349176995796
-0.1663802077190472 0.9858654428237836 0.01967117498348487
-0.1774604880494684 0.9838117745708157 0.02494328360633545
-0.1884433831605301 0.9815217530489905 0.0332285966397815
-0.2002466198008437 0.9787110242989687 0.04501135605598643
-0.213374500890395 0.9750688011398714 0.06092746025749132
-0.2282808183047074 0.9701571414861111 0.08174954934206231