# OOMMF: rectangular mesh v1.0
# Segment count: 1
# Begin: Segment
# Begin: Header
# Title: 
# Desc: time = 3.88e-09
# Desc: stepsize = 2.959589795377635e-14
# Desc: step = 24830
# meshunit: m
# valueunit: (none)
# valuemultiplier: 384000.0000000001
# xmin: 0
# ymin: 0
# zmin: 0
# xmax: 9.357999999999999e-08
# ymax: 9.357999999999999e-08
# zmax: 2.3395e-08
# ValueRangeMaxMag: 1
# ValueRangeMinMag: 0
# meshtype: rectangular
# xbase: 1.16975e-09
# ybase: 1.16975e-09
# zbase: 1.16975e-09
# xstepsize: 2.3395e-09
# ystepsize: 2.3395e-09
# zstepsize: 2.3395e-09
# xnodes: 40
# ynodes: 40
# znodes: 10
# End: Header
# Begin: Data Text
0 0 0
0 0 0
0 0 0
0 0 0
0 0 0
0 0 0
0 0 0
0 0 0
0 0 0
0 0 0
0 0 0
0 0 0
0 0 0
0 0 0
0 0 0
0 0 0
-0.9866855707703847 0.1621528593265374 0.01257118314829453
-0.9912984302703437 0.1309325135254649 0.01356831033902124
-0.995953514276342 0.08874145778266553 0.01419686835930145
-0.9990005109964338 0.04229938143043587 0.01444788425570819
-0.9998806785780273 -0.005338127055835005 0.01449596515858809
-0.9985456106142659 -0.05190556718338413 0.01457654342955174
-0.9954332206048651 -0.09428104418310056 0.01495954624880098
-0.9919547497056002 -0.1256014229174719 0.01581319378260244
0 0 0
0 0 0
0 0 0
0 0 0
0 0 0
0 0 0
0 0 0
0 0 0
0 0 0
0 0 0
0 0 0
0 0 0
0 0 0
0 0 0
0 0 0
0 0 0
0 0 0
0 0 0
0 0 0
0 0 0
0 0 0
0 0 0
0 0 0
0 0 0
0 0 0
0 0 0
0 0 0
0 0 0
-0.9279932930085514 0.3723077716579032 0.01467553386665353
-0.9392432853576261 0.3428856796736188 0.01585754033174347
-0.9532766904714139 0.3016590638876658 0.01628989190525625
-0.9673842594542819 0.2528190665977706 0.01581815806983376
-0.9810757379312791 0.1930464402587413 0.01494885768290657
-0.9894795393862686 0.1438503734415581 0.01540490820036112
-0.9953640310224797 0.09485013162015671 0.01593418583795729
-0.9988663033604823 0.04475189698299032 0.01622885477747176
-0.9998496753228231 -0.005882873147728868 0.01631007542510133
-0.9982868099700068 -0.05619332069486969 0.01630201672157528
-0.9942757605369361 -0.1055905561102472 0.016320124663301
-0.9877275642526948 -0.1553381121443771 0.0162582204087446
-0.9763190233464309 -0.2157968634595931 0.01526035297339349
-0.9639855426874827 -0.2656007051201894 0.01371637449099485
-0.9513620654617669 -0.3078062696902265 0.01286548637665795
-0.9410864619016468 -0.3379100058408652 0.01315671608214774
0 0 0
0 0 0
0 0 0
0 0 0
0 0 0
0 0 0
0 0 0
0 0 0
0 0 0
0 0 0
0 0 0
0 0 0
0 0 0
0 0 0
0 0 0
0 0 0
0 0 0
0 0 0
0 0 0
0 0 0
0 0 0
0 0 0
-0.8788049258747404 0.4769872594339971 0.01360355085763997
-0.8938427069099245 0.4481415955799189 0.01463986390041805
-0.9156385831049684 0.4017042653604902 0.01548122478083153
-0.933064511246522 0.3593172961440336 0.0167838775028134
-0.9493252559907841 0.3137934359056932 0.01775494073579026
-0.9643390571023702 0.2640394852985652 0.01825741356764111
-0.9775647014982101 0.2098115602509374 0.01861084548811206
-0.987517380960953 0.1563281897406981 0.01925926770196123
-0.9945189382409523 0.1026511766559354 0.01987001286463361
-0.9986222661207248 0.04841961821300445 0.02022647225827973
-0.9997753079116354 -0.006167065668594823 0.02028055697542681
-0.9979523561880066 -0.06073237848413596 0.02006671329503628
-0.9931646185258823 -0.1150624583305193 0.0196130362584695
-0.9853511949707231 -0.1694937524755069 0.01883853607738876
-0.9742200269909316 -0.2249167258437562 0.01754438501381349
-0.9610114045850722 -0.2760451134076521 0.0160054872210366
-0.9462796383616119 -0.3230083903176899 0.0148467439727229
-0.9301891848488221 -0.3668006483589114 0.01433055315630567
-0.9099164219788214 -0.4145533046251161 0.01405925451987281
-0.8957867624094145 -0.4442571436171356 0.01420093789868335
0 0 0
0 0 0
0 0 0
0 0 0
0 0 0
0 0 0
0 0 0
0 0 0
0 0 0
0 0 0
0 0 0
0 0 0
0 0 0
0 0 0
0 0 0
0 0 0
0 0 0
0 0 0
0 0 0
-0.8414652682255993 0.5401309979504549 0.01395376017657984
-0.8626888108410353 0.5055224801876576 0.01466416293550803
-0.883429319618495 0.4682863600313691 0.01614070156385471
-0.9050182584077811 0.42499844878842 0.01784013665819285
-0.9249530532730214 0.379569058505141 0.01972762191537437
-0.9433022476180351 0.3312385042418571 0.02149239275604433
-0.9598337685215795 0.2796251993238039 0.02299749353267183
-0.9740821848926796 0.2248851692674284 0.0243013933399513
-0.9853608111914151 0.1685680710142975 0.02547306818415581
-0.99345824191165 0.1111091842289113 0.02637177957208994
-0.9982432518672393 0.05281191759815285 0.02685724224720675
-0.9996214340895062 -0.00593602786442058 0.026865444013298
-0.997555833860051 -0.06469720769054346 0.02639374260738248
-0.9920720912230095 -0.1230639162416325 0.02546052504714797
-0.9832453799117475 -0.1806902060339493 0.02407430841398562
-0.9712374973074941 -0.2370688851400963 0.02227257332026581
-0.9566437939087248 -0.290553597625697 0.02027950893600236
-0.9399233143190875 -0.3408873123167694 0.01843918384502153
-0.9213547146996561 -0.3883531578423915 0.01695035381805381
-0.9009716179904242 -0.4335898036449048 0.01581220259450894
-0.8812019162920122 -0.472497249753183 0.01515030359311614
-0.8610358107203704 -0.5083249954887349 0.01493424315093957
0 0 0
0 0 0
0 0 0
0 0 0
0 0 0
0 0 0
0 0 0
0 0 0
0 0 0
0 0 0
0 0 0
0 0 0
0 0 0
0 0 0
0 0 0
0 0 0
-0.7679167062724294 0.6403755375800075 0.01493663606102721
-0.788371320246769 0.6150011801459465 0.01562721444976939
-0.8194765797176197 0.5728941883383868 0.01582353507950508
-0.8453119818854505 0.5339948700343492 0.01723751890180806
-0.8694912967232153 0.4935648551605898 0.01945812614017675
-0.8929782599362485 0.4495566373436042 0.02210558982566362
-0.9151505857762459 0.4023389401899915 0.02495561179751367
-0.9356584905374012 0.3518123910017253 0.02777103928413212
-0.9541018404813233 0.297937614523566 0.03037854246269825
-0.9699883946440174 0.2409451642423591 0.03267938316651525
-0.9827767411178315 0.1815320949297596 0.03458288056577855
-0.9920865006033402 0.1202992159092717 0.03595099403677962
-0.9976532144845995 0.05783005437707788 0.03665717445861598
-0.9993150457410265 -0.005260216448140732 0.03663017169668234
-0.9970180122339491 -0.06833086750530573 0.03586050511407693
-0.9908205322513798 -0.1307368686516438 0.03438813813300548
-0.9808958916283641 -0.1918342273491734 0.032293637205213
-0.9675485779326432 -0.2509319812567865 0.02971346703202966
-0.9512584081694135 -0.3072221199328013 0.02687024210885558
-0.9325041780179461 -0.3603590250060997 0.02402771474209576
-0.9117148854414546 -0.4102664030529415 0.02138799173546365
-0.8893035281801235 -0.4569201033786178 0.01905922073057978
-0.8659590674226277 -0.4998225665519216 0.01709665212790553
-0.8409186796229433 -0.5409428762044176 0.0153811230050758
-0.8108925742788218 -0.58503944912742 0.01349355194713777
-0.7909913508087113 -0.6116958678436841 0.01268259471764614
0 0 0
0 0 0
0 0 0
0 0 0
0 0 0
0 0 0
0 0 0
0 0 0
0 0 0
0 0 0
0 0 0
0 0 0
0 0 0
-0.7209414141784922 0.6928567182791727 0.01389407275532827
-0.7460442007789604 0.6657267425728254 0.01503178989531524
-0.7714912930101159 0.6360225669555247 0.01662766167818779
-0.7995609064300429 0.6002990095189048 0.01853256807325672
-0.8267837969417304 0.5621193651051744 0.02122198125460727
-0.8532268800798339 0.5209574561536405 0.02464183408677327
-0.8789178126915657 0.4761172836195984 0.02856240137258308
-0.9034389388881262 0.4274648338285179 0.0327398769187308
-0.9263123653013374 0.374942879000858 0.03692207166979076
-0.9470054894999267 0.3186063423341943 0.04087299207826462
-0.9649349605548064 0.2587099844279336 0.04438091770560827
-0.9795107086533454 0.1957719952750744 0.04724507910287644
-0.9902305103859401 0.1304445578285715 0.04927223999077535
-0.9967143537660802 0.06347986014634878 0.05030710041798107
-0.9987268167695962 -0.00429473743364232 0.05026231884468648
-0.9961929570694027 -0.07201179412856598 0.0491313931382365
-0.9892046753938498 -0.1388032720765487 0.04698682623663216
-0.9780165979195767 -0.2038380242686904 0.04397265122838506
-0.9630328267735775 -0.2663528494357472 0.0402980663797982
-0.9447796263222208 -0.3256979350706107 0.0362258578529864
-0.9238217104964283 -0.3814803446620421 0.03203426059678159
-0.9007159853827884 -0.4335074812911773 0.02796385775409962
-0.8760016015645226 -0.4817012285621914 0.02418926328076978
-0.8501880335986981 -0.5260674412394647 0.02081717544099557
-0.8233898772781351 -0.5671943170703555 0.01788062300340891
-0.7956870544668063 -0.6055109928113244 0.01544502957528537
-0.7704952867776392 -0.6372920285570395 0.01399583477669417
-0.7458913167569967 -0.6659277058180364 0.0136540913443466
0 0 0
0 0 0
0 0 0
0 0 0
0 0 0
0 0 0
0 0 0
0 0 0
0 0 0
0 0 0
0 0 0
-0.6676150619213397 0.7443880798394131 0.0132859206966221
-0.6944617668840207 0.719385957568681 0.01437700905318605
-0.7212183261606668 0.6925143921728858 0.01636895364475537
-0.7486320169522916 0.6627099174326074 0.01912246141086273
-0.777149142798758 0.6289110666728334 0.02258495214948506
-0.8058339763437428 0.591532202426736 0.02685621086837654
-0.8343419044255673 0.5503243205069741 0.03188618475224662
-0.8623653842590655 0.5048962623589804 0.03749277647288471
-0.8894231186041835 0.4550175454021075 0.04342291409669662
-0.9149270489020429 0.4005871437003037 0.04938051730622979
-0.9382105929606491 0.3416586049942561 0.05504798715489841
-0.9585555795283518 0.2784939524257232 0.06010257413259732
-0.9752426466299425 0.2116038855420076 0.06423064547199779
-0.9876262730911303 0.1417222386914437 0.06715021787313256
-0.9951985547703586 0.06976874212538926 0.06864516884115153
-0.9976392941104723 -0.003204262383536717 0.068597168668508
-0.9948478917442115 -0.0760801244605053 0.0670036338878074
-0.9869527390342251 -0.1477532945415089 0.06397855003804188
-0.974296722237193 -0.2172030169677951 0.05973898608069193
-0.9574007330393848 -0.2835572265372166 0.05458145888641674
-0.9369086330896432 -0.3461443875050499 0.04884952651612701
-0.9135164534163482 -0.4045342250015137 0.04289230863501484
-0.8879185943515492 -0.4585082769932974 0.03702336739690861
-0.8607737860419391 -0.5080123238621451 0.03149552455839463
-0.8326693696047918 -0.5531361975312875 0.02649656397699959
-0.8040490939566105 -0.5941495875570934 0.02216578699909349
-0.7753993348489027 -0.6311957021167723 0.01865092880244346
-0.7477730489587617 -0.663757614436386 0.01616466914708703
-0.7209475647779024 -0.6928322676446905 0.01476677863069331
-0.6944562105157526 -0.7193924669850461 0.01431957126696235
0 0 0
0 0 0
0 0 0
0 0 0
0 0 0
0 0 0
0 0 0
0 0 0
0 0 0
-0.6135050219186817 0.7895939591774901 0.01236801160145776
-0.6390539029078687 0.769040575179316 0.01366392718390737
-0.6654855095724057 0.7462432374006762 0.01581351266839
-0.6929980619047456 0.7206902212753301 0.01895497703457875
-0.7216163595875011 0.6919075985386584 0.02310204883010669
-0.7512907322781996 0.6593665481447856 0.02824873060008838
-0.7816185439527268 0.6228078991922006 0.03439145901261823
-0.8122381226376689 0.5818519451633499 0.04144328707596545
-0.8427320576645393 0.5360792478119436 0.04921096473218164
-0.8725412308119733 0.4851559302012501 0.05740665400183306
-0.9009688166177509 0.4288862061707002 0.06566440161086415
-0.9272028237630007 0.3672653561600041 0.07356005553684153
-0.9503543410414315 0.3005400807093134 0.08063675558295887
-0.9695205869890923 0.2292555809371307 0.0864390537517877
-0.9838711472757102 0.1542622911017064 0.09055777770257958
-0.9927386265789996 0.07668254065197065 0.09268121307579032
-0.995697299767539 -0.002162726146073635 0.09264021724525558
-0.9926144561808933 -0.08085858971907607 0.09043467172136624
-0.9836639659988733 -0.15801523127247 0.08623449820851821
-0.9692997095406256 -0.2323811928043013 0.08035579826813084
-0.9501953112290538 -0.3029322579481391 0.07321828742031224
-0.9271633193667396 -0.3689241850389426 0.06529260995090615
-0.9010701477769752 -0.4299049535430157 0.05704664498773823
-0.8727664651694205 -0.4856824007523509 0.04890094963399904
-0.8430380591863333 -0.5362734614574366 0.04120200601668992
-0.8125711172041006 -0.5818568880352277 0.03421609755130113
-0.7819359354243418 -0.6227232278651841 0.02814203918029766
-0.751658100293128 -0.6591469899077486 0.02313754436581327
-0.722309739914888 -0.691299433689772 0.01933216501808977
-0.6941466643643406 -0.7196379443839072 0.01678205454536646
-0.6673753141231861 -0.7445606613516702 0.01547939490232508
-0.642051730619785 -0.7665063071383476 0.01541610603464782
0 0 0
0 0 0
0 0 0
0 0 0
0 0 0
0 0 0
0 0 0
0 0 0
-0.586898722715481 0.8095525247318398 0.01321359055066019
-0.6073595774809887 0.7942824949808173 0.01515459696469305
-0.6330370577899487 0.77390417849908 0.01834137307589672
-0.660982902651675 0.7500545499876194 0.02279856234581226
-0.6905322152273202 0.7227374090244104 0.02856391657198684
-0.7214474342837078 0.6915510972270671 0.03564659155507996
-0.7534545975170263 0.6560250834415949 0.04401430876322147
-0.7862199130545474 0.6156219272710519 0.05355269348571759
-0.8192923383989794 0.5697888305365052 0.06403712077048429
-0.8520516586944916 0.5180391853845584 0.07512238895341511
-0.8836948962558352 0.4600302213573021 0.08634538649713819
-0.9132511894993776 0.3956460861135566 0.09714133734407614
-0.9396262858147165 0.3250841723953457 0.106877143787029
-0.9616822508716225 0.2489259648719209 0.1149047969889536
-0.978349567984296 0.1681659187913105 0.1206331073213956
-0.9887541913753286 0.08418022719102151 0.1236075984225396
-0.9923335823250273 -0.001370609292411477 0.1235806733277709
-0.9889141654479808 -0.08669328989427262 0.1205530873251729
-0.9787307011725433 -0.1700381714212601 0.1147747134259779
-0.9623836712903309 -0.2498635942275433 0.1067045149627585
-0.9407477102999802 -0.3249556635729098 0.09694102473789927
-0.914855495295425 -0.3944859513009224 0.08614091335694271
-0.885783636695233 -0.4580075037396 0.0749431483271643
-0.8545612019135204 -0.5154031735448145 0.06391182116050791
-0.8221083147606841 -0.5668114707534943 0.05350397577384506
-0.7892032348395219 -0.612549433385319 0.04406184038551616
-0.7564792958867773 -0.6530357787540098 0.03582382673290615
-0.7244633612659435 -0.6887053168035184 0.02894520322636568
-0.693628005636881 -0.7199494538120439 0.02351539393551417
-0.664421017004672 -0.7471023317536066 0.01956573665367153
-0.6377264400585935 -0.7700731049584881 0.01709972718454218
-0.6167038172423046 -0.7870301338177781 0.01612359331973747
0 0 0
0 0 0
0 0 0
0 0 0
0 0 0
0 0 0
0 0 0
-0.5102989551189959 0.859870865016072 0.01473336013857412
-0.5428897448929901 0.8396672068711141 0.01515607453417363
-0.5691468581611043 0.8220466597505502 0.01763924710145776
-0.5961192618829848 0.8025971036186413 0.02190239427672737
-0.6247134385846094 0.7803574469940148 0.02784554852712105
-0.6550434164198284 0.7547577997907375 0.0354793779551394
-0.6870710325774282 0.725206564082797 0.04482003574530155
-0.7206452064272199 0.6910520223329012 0.05583537304501936
-0.7554903328099715 0.6515795021757115 0.06839962993416061
-0.7911627660930538 0.6060491141325145 0.08225538770914471
-0.8270034655885338 0.5537678929010339 0.09698653873864932
-0.8621106613802938 0.4941860129760862 0.112006214618795
-0.8953434603340279 0.4270141025441733 0.1265663630886291
-0.9253677644556272 0.3523509617181235 0.1397973543480273
-0.9507543620168963 0.2707960409380075 0.1507834451063673
-0.9701276189806115 0.1835097761045099 0.1586712480731206
-0.9823438480215844 0.09218708219753219 0.1627946747594995
-0.9866606168278726 -0.001072396273493348 0.1627872143845277
-0.9828518799175182 -0.09398200779109656 0.1586491864276464
-0.9712356242780315 -0.1843265345117292 0.1507484355081613
-0.9526076942023255 -0.2701987291411091 0.139754168871836
-0.9281048931512641 -0.3501610518626125 0.126524879241788
-0.8990382376827144 -0.4233086569926359 0.111982266897263
-0.8667371444796238 -0.4892418541446191 0.09700067284530946
-0.8324315253272558 -0.547977651228949 0.08233012446815645
-0.7971804375197504 -0.5998359628303986 0.06855776929821573
-0.7618431905848506 -0.6453274240295372 0.05610230614597431
-0.7270852233476761 -0.6850556577979688 0.04523078275302751
-0.6934101035913771 -0.7196389733582624 0.03608567944851346
-0.6611957451234969 -0.7496638366171733 0.0287109508550974
-0.6307070829362906 -0.775678027093462 0.02306889287306642
-0.6020645993383301 -0.7982203417541621 0.01903954394003703
-0.574638230685862 -0.8182440689888011 0.01635687619540508
-0.5418747719988997 -0.8403337818588981 0.01452124436342292
0 0 0
0 0 0
0 0 0
0 0 0
0 0 0
-0.4463033453078514 0.8947713421896657 0.01405592982069685
-0.4745248540110675 0.8801144623575647 0.0149898657375341
-0.5018575034062284 0.8647847574166801 0.01692245888281563
-0.5281324806392219 0.8489114105839168 0.02062764829751576
-0.5552448566397576 0.8312714899549226 0.02628419987782406
-0.5840149171717077 0.8110318810879281 0.0339685793035272
-0.6147555825479772 0.7875026478367994 0.04376246537990017
-0.6475731960602846 0.7599625876941911 0.05572989367849689
-0.6824307513003689 0.7276030635695402 0.06987167926873686
-0.7191333806597127 0.6895203664347678 0.08607464837334891
-0.7572792164454827 0.6447477509212433 0.1040602038327521
-0.7961998272588577 0.5923289414616977 0.1233379916320575
-0.8349120365182298 0.5314349340841984 0.143174027364971
-0.8721021059747279 0.4615227570280769 0.1625873964969206
-0.9061653663641828 0.3825217114929025 0.1803925415271011
-0.9353213668083444 0.2950111437030256 0.1953007063039013
-0.9578086820766467 0.2003334364826823 0.2060801852814474
-0.9721340587961329 0.1005819925668627 0.2117513506446557
-0.9773186503964431 -0.001570833301738471 0.2117682414103041
-0.973068797707823 -0.1031877263116044 0.2061295904669998
-0.9598156478737219 -0.201446430573347 0.1953797781399208
-0.9386133262745008 -0.2939813687586818 0.180499248094526
-0.9109353360750724 -0.379101540936311 0.1627231856543773
-0.8784362972898309 -0.4558527552248954 0.1433455166986512
-0.8427412813734383 -0.5239473138642546 0.1235570514518991
-0.8052987107425968 -0.5836150688435939 0.1043428861734141
-0.7673036296625396 -0.6354315263833 0.08644024054155147
-0.7296792553130766 -0.6801617822896511 0.07034297604110076
-0.693098112461756 -0.7186386287092856 0.056334073426193
-0.6580234801821547 -0.7516796343119102 0.04452894440336267
-0.624749561230509 -0.7800441058733998 0.03491673859990877
-0.593415415592542 -0.8044301347520468 0.02739165639267195
-0.563948883352358 -0.8255226803900186 0.02177064829781739
-0.5357817749192847 -0.8441687485164463 0.01780487833480537
-0.5072845939096683 -0.861643528861774 0.01525680020619444
-0.4787462938208594 -0.8778380622273373 0.01422401693421259
0 0 0
0 0 0
0 0 0
0 0 0
-0.416620353819726 0.9089735604225354 0.01394801906743628
-0.4356744342833144 0.8999674303648485 0.01569750280793867
-0.4590425757421153 0.8882124065263527 0.01893764897523253
-0.4838814783663829 0.874802860793542 0.0240555532340915
-0.5102652405230831 0.8594458369926059 0.03134066990348056
-0.5386077357435388 0.8415578820378071 0.04101265874407539
-0.5692291285942817 0.8204519276441673 0.05326193373099262
-0.6023315567436541 0.7953238935380723 0.06823928573927933
-0.6379908920820129 0.7652247967103261 0.086015301662188
-0.6761176512328868 0.7290527566352437 0.1065222968860327
-0.7163899448256472 0.6855793475631146 0.12948515415923
-0.7581707859015306 0.6335246702443965 0.1543487984960802
-0.8004290572978899 0.5716951896747935 0.180216354240986
-0.841692040255428 0.4991915402654371 0.2058210764185119
-0.8800661273086372 0.4156736203854863 0.2295627427950789
-0.9133626975426321 0.321635967399383 0.2496375116297807
-0.9393464203912679 0.2186081206914304 0.2642703011423568
-0.9560787227484702 0.1091773370647291 0.2720179864992532
-0.9622735940447317 -0.003236416274021138 0.2720644332027541
-0.957550313256595 -0.1148351128517161 0.2644055491825579
-0.9424904986744704 -0.2220048728380408 0.2498509482561817
-0.918482715148079 -0.3218111937524684 0.2298413747562085
-0.8874220301738023 -0.4122894403535405 0.2061542086283257
-0.8513736051771701 -0.4924906023703337 0.1805989783596066
-0.8122939019830533 -0.5623351924795864 0.1547829063562642
-0.7718550096834953 -0.6223706465673167 0.1299793149615396
-0.7313713282723144 -0.6735188340871304 0.1070904305300087
-0.6918020581636311 -0.716866311642078 0.08667527648209099
-0.65379727123069 -0.7535161733190615 0.06901090260169968
-0.6177600827226617 -0.7844991484882645 0.05416240592586225
-0.5839041060882503 -0.8107330386800541 0.04204681778549999
-0.5522916773098998 -0.833017801249293 0.03248454980464274
-0.5228475320873098 -0.8520524648855754 0.0252399538950451
-0.4953907337618539 -0.8684385358402572 0.02006315953488238
-0.4700658640642862 -0.8824722046353506 0.01675981764577084
-0.4498952935453177 -0.8929506641340628 0.01527534838583081
0 0 0
0 0 0
0 0 0
-0.34001768669177 0.9403276590900076 0.01310977830031635
-0.3689075981695104 0.929356521042197 0.01427027712229341
-0.3904967998811337 0.9204493676287447 0.01688818860735053
-0.4124734566150157 0.9107200217876565 0.02132344960719081
-0.4358001093745877 0.8996112030513485 0.02789171944507103
-0.4609042468769085 0.8866809556054316 0.03693451201069109
-0.4881944444416963 0.8713704812679587 0.04878184899231644
-0.5180381716797595 0.8529790204732168 0.06374357469771606
-0.5507353724042886 0.8306336384922299 0.08208719868450168
-0.5864863551409293 0.8032555506107114 0.103991709508932
-0.6253351415424084 0.7695398996394897 0.1294770389489189
-0.66708319854858 0.7279681293018504 0.1583111143759646
-0.7111784330059721 0.6768772361658894 0.1899011416174129
-0.7565960789529415 0.6146139353562571 0.2231862087561166
-0.8017446858771478 0.5397963073653315 0.2565646219230274
-0.8444494201505245 0.4516800532717226 0.2879067666518043
-0.8820744514223756 0.3505740789157413 0.3147101481368124
-0.9118264946146035 0.2381807444077456 0.3344284328704964
-0.9312176510116225 0.1176898984830983 0.3449387978169952
-0.9385724514708487 -0.00650812901154793 0.3450208654513086
-0.9333987152617301 -0.1294812454680707 0.3346661701155177
-0.9164699382225386 -0.2465901842179089 0.3150811536441894
-0.8895917752723524 -0.3542064948430111 0.2883820944143585
-0.855165395702829 -0.4500922072997107 0.25711699850554
-0.8157220436609575 -0.5333975067645825 0.2237959947427962
-0.7735654387188176 -0.6043871523698933 0.1905588677285163
-0.7305742043525953 -0.6640593909399103 0.1590171602031916
-0.6881462310884547 -0.7137873556001605 0.1302396852886427
-0.6472357460137385 -0.7550481492364359 0.1048245267896392
-0.608434096743658 -0.7892515174962603 0.08300597598714654
-0.5720591201498195 -0.817651633281088 0.0647624092061358
-0.5382327462781865 -0.8413172264215949 0.04990826945623155
-0.5069382015850327 -0.8611370636131191 0.03816565793363309
-0.4780586274109246 -0.8778418012352769 0.02921850033774483
-0.4514129960266003 -0.8920249577529783 0.02275481848060771
-0.4267891497138489 -0.9041620591130549 0.01849304050094906
-0.4034513543037552 -0.9148585992486017 0.01614769616235875
-0.3740353819640788 -0.9272871235707071 0.01536631051844849
0 0 0
0 0 0
-0.3099137252387194 0.9506778380371733 0.0128503374907221
-0.3251436897349487 0.9455482624567201 0.014834567422759
-0.3430820531163599 0.9391245682253949 0.01843231360757844
-0.3626417831434828 0.931618885542805 0.0240247626106227
-0.3838760667747496 0.9228289175587828 0.03203052098909251
-0.4070644560890352 0.9123923887373155 0.04287957046371571
-0.4325875419001413 0.8997875374040972 0.05701233309612259
-0.4608557613158832 0.8843113748097227 0.07486894979960382
-0.4922630768638163 0.8650405003036491 0.09686070405990584
-0.5271405166321913 0.8407830403740814 0.1233156711211593
-0.5656880500174774 0.8100370408431252 0.1543924302857395
-0.6078723626295579 0.7709781043521466 0.1899577673082343
-0.6532876602896446 0.7215101440303839 0.2294304796110055
-0.7009909592135657 0.6594244541911605 0.2716082920596042
-0.7493472160725135 0.5827135181629204 0.3145213911875714
-0.7959520340411339 0.4900590470879659 0.355390615904551
-0.8377262005474626 0.3814395715250062 0.390792356873995
-0.8712647166557868 0.2586849111471877 0.4171089908590834
-0.8934387743415034 0.1257020663994657 0.4312379238959114
-0.9021003788363505 -0.01187677347858695 0.4313627809107445
-0.8966165132499777 -0.1476439643365092 0.4174686670427515
-0.8779879185308662 -0.2756526668035078 0.3913474443483065
-0.8485077514438613 -0.3914518143130492 0.3560899785316971
-0.8111436410831153 -0.4925666058946419 0.3153159245706731
-0.7689135794456992 -0.5783919324024113 0.272460418915862
-0.7244466347173085 -0.6497159078398194 0.2303178511245826
-0.6797787525346082 -0.708144441365599 0.1908724646602949
-0.6363340665895432 -0.7556117501208662 0.1553378214630809
-0.5950107859922767 -0.7940472493841416 0.1243025755900957
-0.5563039405622039 -0.8251913640828766 0.09790371983742481
-0.5204239636631476 -0.8505206798870548 0.07598336087329154
-0.4873931234900233 -0.8712400656731087 0.05821246550830451
-0.4571173382167902 -0.8883083761813559 0.04418108087902507
-0.4294421396294517 -0.9024742407355155 0.03346182181730339
-0.4042123203982118 -0.9143053298688472 0.02565470350074855
-0.3813601780285579 -0.9242010272030668 0.0204175397837851
-0.3610508423893662 -0.9323823505916726 0.0174768851651426
-0.3445890827223708 -0.9386075275356015 0.01656119929413146
0 0 0
0 0 0
-0.2677067977082682 0.963402351872487 0.01374695847613297
-0.2781976561830397 0.9603898174380279 0.0160456428856713
-0.2927869609292583 0.9559615154802451 0.02033166079103992
-0.309566437643332 0.9504962848826609 0.02693386546851442
-0.3281808943487082 0.9439172440555078 0.03629789193791613
-0.3487917599001296 0.9359224120452748 0.04892388840969768
-0.3717597338075931 0.9260253159002944 0.06535912048878248
-0.397530744937905 0.9135325337483238 0.08618362148622934
-0.426579624810043 0.8974914743947167 0.111977127511471
-0.4593602711051524 0.8766216160089276 0.1432574035646914
-0.4962348827727841 0.8492435754675303 0.1803781878349101
-0.5373638156543502 0.8132305047793664 0.2233747428016297
-0.5825450001247353 0.7660241400200707 0.2717505100936942
-0.6310059613583605 0.7047802277562862 0.3242164513006828
-0.6811802834109031 0.6267229173349468 0.3784333579104978
-0.7305474113544063 0.5297673064299681 0.4308678228892382
-0.7756659661695089 0.413374208569373 0.4769319370895248
-0.812540602887116 0.2794144040774264 0.5115714607500094
-0.837364515921228 0.1326173487094428 0.5303143466824983
-0.8474590633814423 -0.01983588436325607 0.5304900315596661
-0.842017550974309 -0.1696646901365944 0.5120745422026758
-0.8222749287001169 -0.3093011427102798 0.4776994292955903
-0.7910314201499097 -0.4333609358674452 0.4318189338133623
-0.7518147173218778 -0.5392225413925517 0.3794913459782483
-0.7080807755072909 -0.6267270501726383 0.3253226397576665
-0.6627043765120568 -0.6973991113798684 0.2728688124325231
-0.6177921364374366 -0.7536161599791239 0.224489553374732
-0.5747206308030817 -0.7979710703999009 0.1814893036356246
-0.5342806354999379 -0.8328866636125605 0.1443745410594262
-0.4968425611224599 -0.8604373327149701 0.1131152771628216
-0.4625002420619642 -0.882304817547758 0.08735980210967555
-0.4311802286489024 -0.8998051045392205 0.06659117259398696
-0.4027207940082933 -0.9139434506988794 0.05023276816933835
-0.3769351323864025 -0.9254714445392499 0.03771619433716576
-0.3536846297463033 -0.9349296899886743 0.02852468157405331
-0.3330142092574639 -0.9426598961482515 0.02222288519507243
-0.3154985813436814 -0.9487461312445281 0.0184776518709636
-0.3033238276657779 -0.9527356047881256 0.01701537361288266
0 0 0
0 0 0
-0.2178960589326394 0.9758513432756379 0.01534481439302494
-0.2270767352140229 0.9737170707186709 0.01764149981127921
-0.2393265899483469 0.970680988108488 0.02238755610656545
-0.2533195095148814 0.9669220735220699 0.02984844778075287
-0.2689008756461295 0.9623179717283272 0.0404529401332324
-0.2862959652875068 0.9565754867803928 0.05475361495781631
-0.3058917395535339 0.9492325585562985 0.07340159023874022
-0.3281654178753509 0.9396139510945042 0.09712405170332811
-0.3536490318653199 0.9267591051684445 0.1266882916772722
-0.3828919528412302 0.9093284104943063 0.1628360964814832
-0.4163990987318522 0.8854975608993743 0.2061694939038263
-0.4545250506417934 0.8528631350842841 0.256965856006748
-0.497306355499374 0.808407479166165 0.3149027411886668
-0.5442242914855668 0.7486072305874814 0.3786913451205007
-0.593919575721761 0.6698057444898579 0.4456678160052286
-0.6439389672655615 0.5689680685433275 0.5114860148772761
-0.6906737044745813 0.4448292034064994 0.5701726174976289
-0.7296961058252005 0.2991737792348958 0.6148484715455078
-0.7566070568332348 0.1376266515992285 0.6392219225900612
-0.7682110766699342 -0.03077946977426736 0.6394563049357126
-0.7634960254906819 -0.1954853770091072 0.6155154640100761
-0.7438707153485936 -0.347004082706502 0.5711781906128685
-0.7125479119447952 -0.4789594342964363 0.512711745020094
-0.6734812403792005 -0.5887364796729618 0.4470037766726154
-0.6304066668218327 -0.6768643378351447 0.3800553941119342
-0.5862934084733646 -0.7458210639447277 0.3162451260605268
-0.5432000470635573 -0.798894911333725 0.2582646501463735
-0.5023800778733386 -0.8393986420774366 0.2074227013480767
-0.4644814039423691 -0.8702547473001665 0.1640539551283308
-0.4297444593585522 -0.8938481815840263 0.1278871687447752
-0.3981598709003752 -0.9120315098459412 0.09832213511071158
-0.3695801896641145 -0.9261980918446262 0.07461620515149614
-0.3437953703079345 -0.9373733276226112 0.05599989300474539
-0.3205876947105367 -0.9462985988734045 0.04174316435555107
-0.2997872697505488 -0.9534960904719838 0.03118971545483928
-0.2813678013575605 -0.9593055218964893 0.02377132764732065
-0.2657011534036484 -0.9638679330819492 0.01901327579092555
-0.2544300877583718 -0.966949188564828 0.01657097393298006
0 0 0
-0.1276491444401968 0.9916908572976451 0.01596682422861335
-0.1574222161346079 0.9873951751685994 0.0164016438517309
-0.1716501508330462 0.9849748275881811 0.01899512402236527
-0.1829554224797986 0.9828219724394701 0.02425456401231922
-0.1942424516488095 0.9804149075222168 0.0325035242037332
-0.2064228855556492 0.9774633170541805 0.04421601669437569
-0.2199988837000827 0.9736520655323935 0.06001788446138915
-0.23542395004364 0.9685390816857453 0.08066976504975278
-0.2531909112270573 0.9614753687177796 0.1070489505834688