# OOMMF: rectangular mesh v1.0
# Segment count: 1
# Begin: Segment
# Begin: Header
# Title: 
# Desc: time = 4.3399999999999995e-09
# Desc: stepsize = 2.9597594291936e-14
# Desc: step = 27774
# meshunit: m
# valueunit: (none)
# valuemultiplier: 384000.0000000001
# xmin: 0
# ymin: 0
# zmin: 0
# xmax: 9.357999999999999e-08
# ymax: 9.357999999999999e-08
# zmax: 2.3395e-08
# ValueRangeMaxMag: 1
# ValueRangeMinMag: 0
# meshtype: rectangular
# xbase: 1.16975e-09
# ybase: 1.16975e-09
# zbase: 1.16975e-09
# xstepsize: 2.3395e-09
# ystepsize: 2.3395e-09
# zstepsize: 2.3395e-09
# xnodes: 40
# ynodes: 40
# znodes: 10
# End: Header
# Begin: Data Text
0 0 0
0 0 0
0 0 0
0 0 0
0 0 0
0 0 0
0 0 0
0 0 0
0 0 0
0 0 0
0 0 0
0 0 0
0 0 0
0 0 0
0 0 0
0 0 0
-0.9868381740156698 0.1611746706119996 0.01315841398236942
-0.9914264091192183 0.1298993277026569 0.01413647634205057
-0.9960438726964905 0.08763193708205699 0.01473931026279833
-0.999042729906899 0.04110712794594616 0.01496087738756458
-0.9998659716704958 -0.00661207290692906 0.01497728905001841
-0.998467876176418 -0.05325533080302379 0.01502564423953633
-0.995291771344862 -0.0956963235288468 0.01537867212305874
-0.9917619756370516 -0.1270645635617505 0.0162105017613048
0 0 0
0 0 0
0 0 0
0 0 0
0 0 0
0 0 0
0 0 0
0 0 0
0 0 0
0 0 0
0 0 0
0 0 0
0 0 0
0 0 0
0 0 0
0 0 0
0 0 0
0 0 0
0 0 0
0 0 0
0 0 0
0 0 0
0 0 0
0 0 0
0 0 0
0 0 0
0 0 0
0 0 0
-0.9281955177911017 0.3717750180016452 0.01537584932237006
-0.939447690971508 0.3422926515359544 0.01654619692821083
-0.9534810378063093 0.3009754132470006 0.01696205071917567
-0.967580976043629 0.2520235053405309 0.016468380440368
-0.9812485511734875 0.1921169593291348 0.01556774736621801
-0.9896194977245191 0.1428190938627174 0.01599862968201042
-0.9954615367651636 0.09372329788059235 0.0165006743960346
-0.9989113409094154 0.04353242807413199 0.01676486529990297
-0.9998328052295766 -0.007189936482247639 0.01681268569075888
-0.9982000546922951 -0.05757992193270401 0.016769120505323
-0.994112963676737 -0.1070459643138832 0.01675043205308061
-0.9874819591303275 -0.1568507710966564 0.01664980475902196
-0.9759651615390961 -0.217367289302332 0.01560336512813197
-0.9635351683645018 -0.2672145040076078 0.01401385645561458
-0.9508246774569012 -0.3094514494051361 0.01312376470527607
-0.9404836278402896 -0.3395751904446884 0.01338789747571822
0 0 0
0 0 0
0 0 0
0 0 0
0 0 0
0 0 0
0 0 0
0 0 0
0 0 0
0 0 0
0 0 0
0 0 0
0 0 0
0 0 0
0 0 0
0 0 0
0 0 0
0 0 0
0 0 0
0 0 0
0 0 0
0 0 0
-0.8789606463727236 0.4766784212397981 0.01434799123141761
-0.8940161668579418 0.4477708088148748 0.01537518032105698
-0.9158353331470437 0.4012270175103643 0.01620256088341409
-0.9332723633182489 0.3587431162474899 0.01749492530449781
-0.9495366627093139 0.3131127370862304 0.01845372713646015
-0.9645445375027935 0.2632396353948575 0.01894015656493367
-0.9777506267597341 0.208883400633479 0.01927269599043995
-0.9876701251182839 0.1552797395126844 0.01989790053511847
-0.9946257397491443 0.1014896669247631 0.02048134116622963
-0.9986710118966239 0.04715219670006712 0.02080577669136166
-0.999754803382816 -0.007531437036065357 0.02082331791905721
-0.9978528416880301 -0.06218217140760109 0.02056900323686148
-0.9929780136100081 -0.1165838714906842 0.02007150705267148
-0.9850704092417286 -0.1710722937626104 0.01924991280842045
-0.9738370711541233 -0.2265408800692071 0.01790498543499928
-0.9605286117275132 -0.2777022957883613 0.01631627919253986
-0.9457012194239779 -0.324685792803553 0.01511090770035521
-0.9295197398133923 -0.3684851590312129 0.01455131853078994
-0.909144167437454 -0.4162382471400526 0.01423391837247355
-0.8949458447194307 -0.4459441009639509 0.01434551619418374
0 0 0
0 0 0
0 0 0
0 0 0
0 0 0
0 0 0
0 0 0
0 0 0
0 0 0
0 0 0
0 0 0
0 0 0
0 0 0
0 0 0
0 0 0
0 0 0
0 0 0
0 0 0
0 0 0
-0.8415648688962337 0.5399553750508417 0.01472292068065856
-0.8628238218877835 0.5052693173133875 0.01542625569024745
-0.8835949234430028 0.4679470114732249 0.01689987334363482
-0.9052112735489929 0.4245547213864064 0.01859674133606609
-0.9251645887060307 0.3790131629060238 0.0204818492420096
-0.9435225621124235 0.3305608473930612 0.02224187392259415
-0.9600511364177337 0.2788159288569975 0.02373801336732597
-0.9742820024173738 0.2239379546221732 0.02502742985664397
-0.9855270651277778 0.1674845679520372 0.02617868213924092
-0.9935750161809337 0.1098953004275575 0.02705014168157885
-0.9982954607672548 0.05147675179421978 0.02750121881316852
-0.9995954318944459 -0.007380135618832323 0.02746827504600512
-0.9974400624846633 -0.06623477159437861 0.02694952286090942
-0.9918575940008147 -0.1246770253369367 0.02596444831008364
-0.9829259615272521 -0.1823600527381928 0.02452275109056083
-0.970809747654071 -0.2387777329647671 0.02266336471146095
-0.9561091680467192 -0.2922847239330714 0.02061307673245441
-0.9392858022425742 -0.3426249144904182 0.01871763008387466
-0.9206194815038543 -0.3900830006766782 0.01717622946552816
-0.9001423660071041 -0.4353023215039082 0.0159878019890195
-0.880290977286999 -0.4741879893941109 0.01528221258425046
-0.8600464619073506 -0.5099943506632116 0.01502816197199651
0 0 0
0 0 0
0 0 0
0 0 0
0 0 0
0 0 0
0 0 0
0 0 0
0 0 0
0 0 0
0 0 0
0 0 0
0 0 0
0 0 0
0 0 0
0 0 0
-0.7678698808771298 0.6404126254913409 0.01573261431006738
-0.788365784484341 0.614987609055768 0.01642043124460184
-0.8195368770010081 0.572785562277253 0.01661345485336343
-0.8454219621341391 0.5337945041745003 0.01803145180957312
-0.8696430833255158 0.4932650725599915 0.02026020277479535
-0.8931654254093261 0.4491439962299131 0.02291710068923765
-0.9153641743585388 0.4018009986267987 0.02577568240448775
-0.9358872793826447 0.3511370881217357 0.02859625211699853
-0.954331921545703 0.2971143671523185 0.03120314648497815
-0.9702029597602336 0.2399672022258522 0.03349565238025012
-0.9829569815961045 0.1803987570663323 0.03538164468191821
-0.9922130513652854 0.1190157477619157 0.03672209804818811
-0.9977074719429482 0.05640716345316256 0.03739027066469122
-0.9992803483890075 -0.006806803220644214 0.03731558325229049
-0.9968806958408696 -0.06998115132658797 0.03648995366985455
-0.9905707437863687 -0.132467852433096 0.03495525176970173
-0.9805280078438804 -0.1936217013522653 0.03279424643385877
-0.9670612529715452 -0.2527523793700273 0.03014577456118708
-0.9506545865950599 -0.3090535839861199 0.02723488959238841
-0.9317898914436368 -0.3621819838120894 0.02432712077895857
-0.9108980569754408 -0.4120643973371205 0.02162549989160184
-0.8883926398977443 -0.458681147484506 0.01923856329908567
-0.864963288535349 -0.5015395367494129 0.01722215327124318
-0.83984067124577 -0.5426129210766468 0.01545525160333777
-0.8097170791290407 -0.5866648360111137 0.01351376908147823
-0.7897529650257246 -0.613294175663175 0.0126691882416598
0 0 0
0 0 0
0 0 0
0 0 0
0 0 0
0 0 0
0 0 0
0 0 0
0 0 0
0 0 0
0 0 0
0 0 0
0 0 0
-0.7207973400184486 0.6929899985274909 0.01469886264975079
-0.7459539657492406 0.6658091927721905 0.01583666009687858
-0.7714550673251819 0.6360447717013573 0.01743925140786675
-0.7995850732406652 0.600240821238368 0.01935632118480066
-0.8268642841845478 0.5619685298125651 0.02206415736616332
-0.8533584351510961 0.5207002896572401 0.02550665613791765
-0.8790939667415623 0.4757377632107159 0.0294512867944516
-0.9036505104130373 0.4269465420844357 0.03365122928511355
-0.9265468982857463 0.3742701460578158 0.03785106401309457
-0.9472468851083687 0.3177658366746479 0.04181162152982628
-0.9651635364740879 0.2576928355743099 0.04531832250318794
-0.9797040793197507 0.1945758092440611 0.04816815775237542
-0.9903651467980745 0.1290743713023855 0.05016654941812881
-0.9967674074198904 0.06194829482551537 0.05115803234723103
-0.9986779418912277 -0.005968010731475236 0.05105635345194417
-0.9960259168676561 -0.07380130134374031 0.04985720457381055
-0.9889085091288606 -0.1406796529769194 0.04763607677829027
-0.9775861613597868 -0.2057703824194645 0.04454039556159506
-0.9624686666483399 -0.2683110733846521 0.0407827613010912
-0.9440873160965993 -0.3276544771916007 0.03662899345897706
-0.9230105858176554 -0.3834114192790332 0.03235957408535229
-0.8997977017645262 -0.4353939941535547 0.02821640930895043
-0.8749885942102171 -0.4835295612045899 0.0243746475528182
-0.8490919948613457 -0.5278297650458441 0.02094095017015354
-0.8222187868269915 -0.5688885252597472 0.01794749053599698
-0.7944439788858476 -0.6071406572988447 0.01545919359956161
-0.7691917455231604 -0.6388654025375113 0.01396624715578527
-0.7445283777950576 -0.6674525250239606 0.01358754933747866
0 0 0
0 0 0
0 0 0
0 0 0
0 0 0
0 0 0
0 0 0
0 0 0
0 0 0
0 0 0
0 0 0
-0.6673529531579326 0.7446081410951294 0.01409794758967504
-0.6942598959367519 0.7195640639754328 0.01519061318871749
-0.7210749701298341 0.6926436818676406 0.01719352846559168
-0.7485485143162329 0.6627793262251092 0.01996713408453871
-0.7771285194291423 0.6289045917130891 0.02345802233908881
-0.805875937688418 0.5914330755106399 0.02776491035170473
-0.8344437868249991 0.5501139897958834 0.03283542081364582
-0.8625218680914071 0.504554251860172 0.03848420447314587
-0.8896252356703122 0.4545225557168266 0.04445431816128879
-0.9151613829181147 0.3999186231903275 0.0504453966279995
-0.9384588209113816 0.3407988442100166 0.05613545438255139
-0.9587946153091101 0.2774305880329626 0.06119766725896716
-0.9754456631212215 0.2103323327347249 0.06531514452536162
-0.9877645894355285 0.1402474006670278 0.0682039768884716
-0.9952440886402454 0.06810566246161232 0.06964784826045718
-0.9975671681119286 -0.005030963900790134 0.06953009785247945
-0.9946387502864329 -0.07803803154498093 0.06785147059000632
-0.9865943672518654 -0.1498049509838119 0.06473045008053117
-0.973784695700275 -0.2193091907726701 0.06038911543116701
-0.9567380581743433 -0.2856800663657317 0.05512882841179717
-0.9361045639994903 -0.3482499478808542 0.0492972520563337
-0.9125847512508666 -0.4065941636658436 0.04324647797527971
-0.8868755809466345 -0.4605008426415261 0.03729179329307088
-0.8596363883693915 -0.5099227759392054 0.03168662761612794
-0.831453258093486 -0.5549566961434378 0.02661850881033379
-0.802766898985162 -0.5958786080279143 0.02222589454805764
-0.7740602527553645 -0.6328370149885656 0.01865576491764477
-0.7463852775843682 -0.6653188193565324 0.01612098059470908
-0.7195138641667458 -0.6943229035107452 0.01468008624788661
-0.6929703624177406 -0.7208263063709983 0.01419552232812147
0 0 0
0 0 0
0 0 0
0 0 0
0 0 0
0 0 0
0 0 0
0 0 0
0 0 0
-0.6131204327657194 0.7898794147445889 0.01318503272358141
-0.6387270349814544 0.7692971087701307 0.01448216909571616
-0.6652164062486734 0.7464650740218299 0.01664410175357955
-0.6927886591781404 0.7208685292059747 0.01981003065542337
-0.7214699520003619 0.6920299311108993 0.02399339090746213
-0.7512111025649044 0.6594163999311504 0.02918716987069881
-0.7816079141755828 0.6227655217875732 0.0353860618145846
-0.8122963149423531 0.5816944402087518 0.04250029366133655
-0.8428554974957254 0.5357809557531896 0.05033267123282016
-0.8727216925619982 0.4846896023797426 0.05859041454612854
-0.9011922786257631 0.4282249618413803 0.06690186097002471
-0.9274487521781624 0.3663854071528524 0.07483679247941794
-0.9505957713872647 0.2994240094196528 0.08193254544874268
-0.9697253243547038 0.2278956575826569 0.0877289265871424
-0.9840041602262443 0.1526630875718908 0.09181391153011657
-0.9927653556394618 0.07486215805389816 0.09387548100311083
-0.9955873083463521 -0.00417326944864338 0.09374697478731613
-0.9923446966420683 -0.08301785476780914 0.09143324797967005
-0.9832209883954116 -0.1602753214008688 0.08711090246689784
-0.9686804071353591 -0.2346923811782127 0.0811033602816479
-0.9494061876515529 -0.3052473666289967 0.0738372264850629
-0.926218613866071 -0.3712019895724284 0.06578877005602086
-0.899989322069496 -0.4321123027256478 0.05742976574935958
-0.8715715500026581 -0.4877951198933397 0.04918286525006191
-0.8417511982064252 -0.5382762936593581 0.04139507219937004
-0.8112125106252061 -0.5837427307645099 0.03433200962283538
-0.7805223437246164 -0.6244918996961882 0.02819110073191866
-0.7502022785227823 -0.6608037653016712 0.02312844703734511
-0.7208206255172601 -0.6928536714662965 0.01927214997291487
-0.6926280007892194 -0.7211021665980911 0.01667686572072343
-0.6658244774577807 -0.7459508214429593 0.01533418425110264
-0.6404583962830562 -0.7678416958164259 0.01523721747203484
0 0 0
0 0 0
0 0 0
0 0 0
0 0 0
0 0 0
0 0 0
0 0 0
-0.586454787868221 0.8098604134602341 0.01403183866989994
-0.6069567621408036 0.7945740969792067 0.015984157820462
-0.6326868401590263 0.7741697860584675 0.01919647477462513
-0.6606912299762436 0.7502837371590683 0.02369414246390468
-0.6903047327563985 0.7229164947144281 0.02951470148791527
-0.7212899268706631 0.6916620743844046 0.03666628223825343
-0.7533718862411196 0.6560453300921272 0.04511458617574696
-0.7862145512243932 0.6155241668794861 0.05474193484285959
-0.8193630551706046 0.569541588805771 0.06531892866612429
-0.8521915938434859 0.5176080962102282 0.07649409206024844
-0.8838899093366667 0.459380410522689 0.08779673456811467
-0.9134786715415112 0.394745694084019 0.09865370566218772
-0.9398549965796447 0.3239087882301012 0.108423624324143
-0.9618736665030786 0.2474633218607123 0.1164515093143281
-0.9784609377024821 0.1664198342595792 0.1221418525952224
-0.9887430155079248 0.08217265326199276 0.1250396110845659
-0.9921626995976788 -0.003600256683020867 0.1249008233714332
-0.9885563173025892 -0.08909168351111957 0.1217336414073632
-0.9781715048274283 -0.1725438204659804 0.1157978288339081
-0.9616223965018389 -0.2524134816645665 0.1075630086044045
-0.9397959121139321 -0.3274913263119412 0.09763746598712775
-0.9137341041136804 -0.3969579449400292 0.08668550587357685
-0.8845193431593781 -0.4603778344974505 0.07535105228422224
-0.8531828900731163 -0.5176458728192489 0.06420051744092249
-0.8206440381130189 -0.5689117952268611 0.05369107897320707
-0.7876779687219899 -0.6145022368279922 0.04416354292166217
-0.754913537928685 -0.6548435245494079 0.03585399012249674
-0.722872550180962 -0.6903761275362948 0.02891502590110405
-0.692022442282581 -0.7214955367305114 0.02343351990637215
-0.6628056655726413 -0.7485391012378981 0.01943871402040004
-0.6361013308484331 -0.7714197012258059 0.01693344186925709
-0.6150672500316299 -0.788313764866553 0.0159275252455745
0 0 0
0 0 0
0 0 0
0 0 0
0 0 0
0 0 0
0 0 0
-0.5096682535001865 0.8602305538688706 0.01554559630650452
-0.5423345211180642 0.8400106985154725 0.01597790922452474
-0.5686446521463658 0.8223755640157214 0.01848489370166738
-0.5956691148333072 0.8029065819890182 0.02278873038181877
-0.6243198100811871 0.7806381237110498 0.02879052880864911
-0.654713101131247 0.7549956449395718 0.0365011140841607
-0.6868119018016804 0.725382182805775 0.04593582927832359
-0.7204648505462724 0.691140001416321 0.05706047291763633
-0.7553943981590283 0.6515480438797098 0.06974560736334967
-0.7911528967622565 0.6058602899890753 0.08372814914378082
-0.8270749066984574 0.5533789562919192 0.09858412368633916
-0.8622498248361886 0.4935521814434713 0.1137166819879654
-0.8955260025709724 0.4260930446587394 0.128366257298013
-0.9255579357771392 0.3511088033471907 0.1416513880343712
-0.9509063954680455 0.2692140774776131 0.1526460204061875
-0.9701895910773219 0.1815904030034469 0.1604901333486377
-0.9822637229711039 0.08995713024850051 0.1645165440081945
-0.9863933170242971 -0.003562385287827894 0.1643640275147356
-0.9823656290175212 -0.0966629092251361 0.1600439093034858
-0.970515886860902 -0.1871190761595756 0.151938687264907
-0.9516578221835217 -0.2730230672790797 0.1407330601189317
-0.9269436888348518 -0.3529451879239032 0.1272992225058633
-0.8976955002096922 -0.4259941295174286 0.1125690477882714
-0.8652485469394389 -0.4917862640958198 0.09742290524237887
-0.8308339323862916 -0.5503544902393209 0.08261302481417626
-0.7955082896722393 -0.6020326624642727 0.06872579129356846
-0.7601261374971613 -0.6473425503517909 0.05617719820073976
-0.7253468935388031 -0.6868959738927423 0.0452305768650875
-0.6916677430339745 -0.7213168343131374 0.03602440537692547
-0.6594603382450573 -0.7511951599910064 0.02859884416895394
-0.628983561773934 -0.7770808693509272 0.02291291135980288
-0.6003519591640852 -0.79951386814661 0.01884409109214206
-0.5729284176895614 -0.8194467875703394 0.01612422228778769
-0.540141551281019 -0.8414535539600221 0.01424854756744452
0 0 0
0 0 0
0 0 0
0 0 0
0 0 0
-0.4455264381796132 0.8951454500802017 0.01485988168525306
-0.4738091199848836 0.880485821611149 0.01579986585036484
-0.5011961306422174 0.8651516141713261 0.01775170769299402
-0.5275178118728802 0.8492720287850947 0.02149370326624052
-0.5546765021697434 0.8316211570609554 0.02720715106981657
-0.5834975605926901 0.8113616317940793 0.03496997619141563
-0.6142971830253868 0.787798290986683 0.04486450317941044
-0.647183665813551 0.7602035912683922 0.05695438988149108
-0.6821205008863829 0.7277614179342117 0.07123861899907309
-0.7189114253752885 0.6895596967162327 0.08760015484853401
-0.7571506793732484 0.6446231179009198 0.1057538868899124
-0.7961628595951386 0.5919879342832071 0.1251997869981921
-0.8349544587003814 0.5308207379396345 0.1451908952709311
-0.8721984619046141 0.4605797186827676 0.1647305854701153
-0.9062754575072487 0.3812033951272219 0.1826164468592729
-0.9353914857984021 0.2932898909707935 0.1975444460120237
-0.9577763815560638 0.1982092802453891 0.2082726197990925
-0.9719362446898258 0.09808800743880147 0.2138192672677654
-0.9769013533718772 -0.004369256514924707 0.213646098437816
-0.9723959197609654 -0.1062003903814439 0.2077682658999067
-0.9588740659242586 -0.2045708193830136 0.1967518883132819
-0.937413073631522 -0.2971165128775513 0.1815998545158719
-0.9095054164678548 -0.3821595661360159 0.1635663884371271
-0.8768179877389845 -0.458765881323397 0.1439586138823384
-0.8409810405904619 -0.5266700016050998 0.1239741859286335
-0.8034422333204074 -0.5861224285805924 0.1045996005341481
-0.7653917364352992 -0.6377156051454749 0.08656960638987381
-0.7277456140873205 -0.6822271718289534 0.07037334150752948
-0.6911684074615037 -0.7204983547739233 0.0562881274799391
-0.6561155184535824 -0.7533518183271126 0.04442369038721603
-0.6228738217343105 -0.7815495288369205 0.034764006858835
-0.5915756238301892 -0.8057906068556533 0.02719888220349954
-0.5621422695855691 -0.826759954386689 0.02154174012712138
-0.5339984937518204 -0.8453034487898309 0.01754104144012086
-0.5055064166513814 -0.8626931874359914 0.01495750901080703
-0.4769514003106476 -0.878819878449712 0.01389183153312324
0 0 0
0 0 0
0 0 0
0 0 0
-0.4157811819430718 0.9093451380693883 0.01474546071123665
-0.4348656107432772 0.9003440554781321 0.01650703965179796
-0.4582684297390032 0.888593797045541 0.01977650516991334
-0.4831410220330258 0.8751871354875776 0.02494455263040904
-0.5095600465517865 0.8598285012154598 0.03230336601216766
-0.5379432587286102 0.8419303847468088 0.04207466730151665
-0.5686143281286976 0.8208001691623249 0.05445023553528387
-0.6017780337041491 0.7956265799487927 0.06958120026382615
-0.6375115844431936 0.7654516816191981 0.08753686541720489
-0.675724880434317 0.729163033826996 0.1082458131395314
-0.7160926047858511 0.6855207165295542 0.1314257531072998
-0.7579706053611321 0.63323389919259 0.1565100326555033
-0.8003162037411574 0.5711012282771752 0.182585215966801
-0.8416408649216138 0.4982221929083156 0.2083633868692535
-0.8800324958952108 0.4142661523640911 0.2322205011920712
-0.9132847576129767 0.3197505894835022 0.2523301647381035
-0.9391503168297163 0.2162412896679832 0.2669014556748803
-0.955689278140911 0.1063702447906423 0.2744874763439723
-0.9616276629860045 -0.006398477087323763 0.2742832427820509
-0.9566086714966276 -0.1182338614868279 0.2663092255543729
-0.9412442205793964 -0.2255076429904276 0.2514072794864656
-0.9169522670381421 -0.325290978993598 0.2310504684241035
-0.8856503303678211 -0.4156405023728744 0.207042181949942
-0.8494162078172391 -0.4956365794068151 0.1812084077831164
-0.8102095036953162 -0.5652299724539684 0.1551632635692954
-0.7696982706534689 -0.6249943054920183 0.1301794540455939
-0.7291885785610235 -0.6758713474477261 0.1071538081234086
-0.6896295018149536 -0.7189611054011749 0.08663763123942855
-0.6516609044268442 -0.755374672166123 0.06889971183908561
-0.6156765441771164 -0.7861467241741745 0.05399741679318538
-0.581881839776668 -0.8121963101256391 0.04184110845108936
-0.5503319949227733 -0.8343230220495735 0.03224577867546184
-0.5209453467186326 -0.8532246847419344 0.02497164550504946
-0.493535002779217 -0.8695012952683044 0.01976609618660891
-0.4682405895971123 -0.883448170369096 0.01643412684765735
-0.4480836390121714 -0.8938670371855313 0.01492555803879736
0 0 0
0 0 0
0 0 0
-0.3390123559602383 0.9406793382595781 0.01389262674264651
-0.367958946277609 0.929720072767997 0.01505988534290296
-0.3895768973170556 0.9208238926307674 0.01769745284318778
-0.4115743917771463 0.9111064231904831 0.02217218199266607
-0.4349193891773106 0.9000085932110331 0.02880376822451161
-0.4600432855208726 0.8870856546681363 0.03793701001877213
-0.4873585946023704 0.8717746913136442 0.04990478786852214
-0.5172365618758972 0.8533691068132583 0.06501927864520038
-0.5499803773436096 0.8309880181435016 0.08354937605341839
-0.5857925424578421 0.8035422557508473 0.1056737451953726
-0.6247174317576877 0.7697140785373144 0.1314091616270755
-0.6665539247572618 0.7279700869318503 0.160516098641614
-0.7107430945489933 0.6766320737811586 0.1923883839568516
-0.7562479274113394 0.6140343323891122 0.2259444863976768
-0.8014589830016993 0.5387901760026305 0.2595547048483916
-0.8441791844871978 0.450164172290359 0.2910562187355996
-0.8817503667375751 0.3484928054073167 0.3179135972831131
-0.9113635005162173 0.2355256164556004 0.3375562974083515
-0.9305287337074963 0.1145128771751655 0.3478549650440371
-0.9375865312815473 -0.01009506526714795 0.347605503432681
-0.9320764064475072 -0.1333226832121433 0.3368362134406203
-0.9148110491074791 -0.250515011875771 0.3168011572828531
-0.8876322457879842 -0.3580566660781638 0.2896625970234494
-0.8529662424202645 -0.4537432794948636 0.2580031503774707
-0.8133554887079725 -0.5367670987852268 0.2243522468135889
-0.7711028164526733 -0.6074329784379227 0.1908549794078959
-0.7280779322906509 -0.6667712429915001 0.1591183019986688
-0.6856659636502019 -0.7161772682960402 0.1302010240653318
-0.6448076537571444 -0.7571414870213322 0.1046893418038902
-0.6060819668659487 -0.7910801571445298 0.08280600468618622
-0.5697962072336842 -0.8192493757306467 0.06451931948690452
-0.5360636781314266 -0.8427170627498267 0.04963552294990001
-0.5048605656257432 -0.8623697841738901 0.03787036598624429
-0.4760641178155331 -0.8789354726611774 0.02890312485511193
-0.4494882103208533 -0.893004898624033 0.02241873805628086
-0.4249162900224502 -0.9050509940616569 0.01813407349612554
-0.4016084394226962 -0.9156758051349089 0.01576328883838066
-0.3721915248953779 -0.9280355221736563 0.01495119994922421
0 0 0
0 0 0
-0.3088523992185954 0.9510124043946134 0.01362358926615966
-0.3240980112793068 0.9458946058859071 0.01561645416673889
-0.342045472519657 0.9394864052044613 0.01924030053825617
-0.3616079639212083 0.9319981700481099 0.02488154849946935
-0.3828417314281617 0.9232256794265139 0.03296291134803118
-0.4060298596318635 0.9128038904422804 0.04391822720426973
-0.4315567348725386 0.9002069276184684 0.05819168371743915
-0.4598366716500091 0.8847257720871512 0.07622692182316747
-0.4912672860999575 0.865428460911327 0.09843796347260264
-0.5261825294434371 0.8411114279192227 0.1251539513247275
-0.5647837282766869 0.8102575228080408 0.1565314249818926
-0.6070361070553809 0.7710239052636798 0.1924299930961697
-0.6525279457672579 0.7212943430684402 0.2322536343100565
-0.7003041565580205 0.6588419338130959 0.2747751709252105
-0.7487104375399006 0.5816492948484419 0.3179886452707394
-0.7953171127729769 0.4884052858356485 0.3590695850364579
-0.8370183831988953 0.379120988819659 0.3945472113999925
-0.8703899533359484 0.2556870946728411 0.420767677881282
-0.8923009753873966 0.122091633275525 0.4346177658665306
-0.9006245980543476 -0.01595227093743679 0.4343050292494696
-0.894768967689317 -0.1519808720242638 0.4198693951682326
-0.8757838931820383 -0.2800323496286133 0.3931722976055017
-0.846004730614019 -0.3956812301695968 0.3573686610073343
-0.8084245467529586 -0.4965041897653943 0.3161223525040298
-0.7660681818141355 -0.5819546230579307 0.2728889105725734
-0.7215572309004492 -0.6528719118909919 0.2304635094740076
-0.6769122395167836 -0.7108993776023731 0.1908190108897184
-0.6335395333000657 -0.7579943408319809 0.1551523090792553
-0.5923206012459078 -0.7960977783324423 0.1240348042842629
-0.553736440138792 -0.826953751794406 0.09758815120481362
-0.5179864582827579 -0.8520377464698687 0.07564197000496346
-0.4850845440410845 -0.8725511324380685 0.05785763919740114
-0.4549302615178911 -0.8894483823468298 0.04381817312337789
-0.4273641781408991 -0.9034737551470127 0.0330912828779561
-0.4022269845037122 -0.9151910644441529 0.02527386987836105
-0.3794473119968542 -0.9249966734681676 0.02002227487538684
-0.359186677114772 -0.9331097311393225 0.01706342979442772
-0.3427471385276935 -0.9392892173132068 0.0161296394944475
0 0 0
0 0 0
-0.2665603704799477 0.9637090406689853 0.01450702665801273
-0.2770479802096741 0.9607088996531766 0.01681745488836068
-0.291627270480884 0.956298503193198 0.02113546550983876
-0.3083896674849661 0.9508539698175117 0.0277946230553669
-0.3269819328197022 0.9442963687978854 0.03724491219775902
-0.3475684253951463 0.936321040688294 0.04999098351431119
-0.370513263341434 0.9264374679071232 0.06658483119989328
-0.3962660549050745 0.9139461041567837 0.08761125741938396
-0.4253053311000421 0.8978853370152454 0.1136542868126926
-0.4580882821050247 0.8769618420132135 0.1452344774867813
-0.4949792265663993 0.8494788970064703 0.1827051417130877
-0.5361382028604428 0.8132876237088913 0.2260952643367811
-0.581358569767795 0.7658043309936389 0.2748925971882988
-0.6298568781107717 0.7041599379957874 0.3277790335245998
-0.6800476949575552 0.6255623227847312 0.3823701255264155
-0.7293839584156153 0.527930880158706 0.435072438774075
-0.774395237088854 0.4107642565605373 0.4812325241568424
-0.811064936367962 0.2760108318620653 0.5157438217654613
-0.8355856906738801 0.1285072447995257 0.5341183778668255
-0.8453068159425917 -0.02445825335495347 0.533721070189122
-0.8394732731716609 -0.1745349854855102 0.5146087469835993
-0.8193782642861812 -0.3141449586355543 0.4795124659268309
-0.7878673915183622 -0.4379493536496363 0.4329726746804201
-0.7484899188201551 -0.5434025544117242 0.3801006515166869
-0.704700287173732 -0.6304238803513814 0.3255199476836497
-0.659356587083058 -0.7006003847823042 0.2727782834337594
-0.6145425444496995 -0.7563502555940181 0.2242136301034172
-0.571612121740997 -0.8002877963282585 0.1811050118765765
-0.531337048418362 -0.8348434185462305 0.1439354281895388
-0.4940731725627945 -0.8620907127906157 0.1126556837177011
-0.4599038600721829 -0.8837063529150265 0.08689948968968503
-0.4287483922466219 -0.9009996650349952 0.0661393963743437
-0.4004400154508598 -0.9149691785778404 0.04979152817806035
-0.3747883229484271 -0.9263604650606815 0.03728272728842235
-0.3516518897248415 -0.9357092012062056 0.0280934019120525
-0.3310731212391739 -0.9433535454061984 0.02178707787901448
-0.3136240186545656 -0.9493760281451934 0.01803141997228627
-0.3014869096823718 -0.953326547378307 0.01655709376459086
0 0 0
0 0 0
-0.2166456141981561 0.9761177544454698 0.01608748908427527
-0.2258133480690921 0.973996809003674 0.01839967077115166
-0.2380378249382888 0.9709791721303536 0.02318277782538308
-0.2519941962715641 0.9672414401102201 0.0307070281687311
-0.2675301401515246 0.9626594257687551 0.04140596682938005
-0.2848736296728233 0.9569374108384879 0.05583732492483506
-0.3044145625503315 0.9496093832097304 0.07465784236987354
-0.3266332913447874 0.9399939371707855 0.09860066463992923
-0.3520650768426551 0.9271211535206357 0.1284388896025676
-0.3812623445090232 0.9096377214723567 0.1649188901674432
-0.4147322971832991 0.8857001503804126 0.2086441115612354
-0.4528299472070155 0.8528797110741043 0.2598869703364199
-0.4955887001014261 0.8081282163634972 0.3183090106310697
-0.5424808780971639 0.7478906869276503 0.3825885744580155
-0.5921303923947409 0.6684872492600261 0.4500071065874551
-0.6420593450844404 0.5668838687878032 0.5161419152693487
-0.6886312654725411 0.4418593194487737 0.5749324499712575
-0.7273991312025883 0.2952957177666514 0.6194279158985306
-0.7539679005987869 0.1329566024603714 0.6433155887500721
-0.7651785021166595 -0.03598767807740177 0.6428115952011929
-0.7600800997275756 -0.2008950686087552 0.6179962891529378
-0.7401450481955193 -0.352280777033864 0.5727857904697606
-0.7086285569644265 -0.4838433980309287 0.5135573331541456
-0.6694957567382777 -0.593074647772887 0.4472559601374879
-0.6264684526484285 -0.6806029074798445 0.379890721347949
-0.5824882810897886 -0.7489773637550882 0.3158168946961851
-0.539583870044669 -0.801526572219639 0.2576905144033305
-0.4989828381685351 -0.8415795865047017 0.2067847353937137
-0.4613135472126264 -0.8720600726913176 0.1634045310746216
-0.4268029760403241 -0.8953463364147979 0.1272562670822995
-0.3954331060925785 -0.9132812756074398 0.09772394911597951
-0.3670512085619238 -0.9272482760812246 0.07405433679149032
-0.341444092285717 -0.9382637599905624 0.05547115044376041
-0.3183920969133159 -0.9470616215442419 0.04124024273851938
-0.2977239326832752 -0.9541581519622905 0.03070310980194775
-0.2794119604241355 -0.9598887919971207 0.02329084305577978
-0.2638261778036449 -0.9643922441805296 0.01852963221331124
-0.2526051497755091 -0.9674358434708065 0.01607877715564836
0 0 0
-0.1262348030919826 0.991860225933577 0.01667533206030251
-0.1560492765334633 0.9876008658297827 0.01712171444819595
-0.1702675111729809 0.9852002245270999 0.01973555752214832
-0.1815359364339758 0.983065569465475 0.02503577269748745
-0.1927678426134864 0.9806774172861278 0.03335209257529622
-0.2048790364909098 0.9777447531269258 0.04516390305678059
-0.2183744064761218 0.9739502440094514 0.06110270689691993
-0.233709747011002 0.9688479466041854 0.08193540451420502