# OOMMF: rectangular mesh v1.0
# Segment count: 1
# Begin: Segment
# Begin: Header
# Title: 
# Desc: time = 2.04e-09
# Desc: stepsize = 2.9505389958807e-14
# Desc: step = 13054
# meshunit: m
# valueunit: (none)
# valuemultiplier: 384000.0000000001
# xmin: 0
# ymin: 0
# zmin: 0
# xmax: 9.357999999999999e-08
# ymax: 9.357999999999999e-08
# zmax: 2.3395e-08
# ValueRangeMaxMag: 1
# ValueRangeMinMag: 0
# meshtype: rectangular
# xbase: 1.16975e-09
# ybase: 1.16975e-09
# zbase: 1.16975e-09
# xstepsize: 2.3395e-09
# ystepsize: 2.3395e-09
# zstepsize: 2.3395e-09
# xnodes: 40
# ynodes: 40
# znodes: 10
# End: Header
# Begin: Data Text
0 0 0
0 0 0
0 0 0
0 0 0
0 0 0
0 0 0
0 0 0
0 0 0
0 0 0
0 0 0
0 0 0
0 0 0
0 0 0
0 0 0
0 0 0
0 0 0
-0.9844156226760581 0.1754390186995864 0.01212569787823037
-0.9894358705931808 0.1443610484415469 0.01328704919728637
-0.9946456722238339 0.1023712167565251 0.01414640258812081
-0.9983161701636581 0.05612405514322892 0.01465997353493838
-0.9998503458564277 0.008646611117368386 0.01498405842773985
-0.9991674269256146 -0.03780445435161973 0.01533871578790459
-0.9966587718134629 -0.08010083260427311 0.01597338985254527
-0.993634723122689 -0.1113577252215615 0.01701452433586619
0 0 0
0 0 0
0 0 0
0 0 0
0 0 0
0 0 0
0 0 0
0 0 0
0 0 0
0 0 0
0 0 0
0 0 0
0 0 0
0 0 0
0 0 0
0 0 0
0 0 0
0 0 0
0 0 0
0 0 0
0 0 0
0 0 0
0 0 0
0 0 0
0 0 0
0 0 0
0 0 0
0 0 0
-0.9234158233871816 0.3835805322055354 0.01300739909016808
-0.934959596207137 0.3544650649121047 0.01432030785437502
-0.9494078243765801 0.3136895843113283 0.01495418694259181
-0.9640308635843419 0.2653810294714478 0.01474460082545016
-0.9784023124696967 0.2062198245699111 0.01422318207379744
-0.9874174183108343 0.1574280172380208 0.01494193444208997
-0.9939457245498392 0.1087389838582573 0.01573944213014707
-0.9981314702250255 0.05888340087842785 0.01631910682048954
-0.9998251352084284 0.008420733920008854 0.01669701307706027
-0.9989818083708755 -0.04179368457283102 0.01698924583027102
-0.99568424535454 -0.09117795762210472 0.01730501651606147
-0.9898517322729347 -0.1410169052131478 0.01754367579430504
-0.9792968053580928 -0.2017223572637508 0.0169073237204668
-0.967660862355761 -0.251766584322814 0.01568574140191147
-0.9556276642659445 -0.2941897429722939 0.01510504616048236
-0.9457782439804027 -0.3244388924806247 0.01558583521311787
0 0 0
0 0 0
0 0 0
0 0 0
0 0 0
0 0 0
0 0 0
0 0 0
0 0 0
0 0 0
0 0 0
0 0 0
0 0 0
0 0 0
0 0 0
0 0 0
0 0 0
0 0 0
0 0 0
0 0 0
0 0 0
0 0 0
-0.8734022289928324 0.4868673582275617 0.01134556666131293
-0.888647399720667 0.4584205976667466 0.01250418348231069
-0.9107745806163836 0.412680952854074 0.01356814115874247
-0.9285519583820017 0.3708972365519777 0.01504993365617328
-0.9452381256049966 0.3259778484561986 0.01622739099853782
-0.9607631650252948 0.276849997326522 0.0169770348082973
-0.9746018818837272 0.2232504828887031 0.01761799417236889
-0.9852189533361041 0.1702919074993525 0.01855478988139531
-0.9929378492124581 0.1170274730968181 0.01946787461205249
-0.9978039583265402 0.06309895438950713 0.02014404881939534
-0.9997513292194994 0.008703642782585206 0.02053110630620035
-0.9987376149246785 -0.04578716161080737 0.0206570173594769
-0.9947585766004868 -0.1001662594914895 0.02054494437218628
-0.9877447711288141 -0.1547762608151226 0.02011407954083614
-0.9774068759052819 -0.2104953249445268 0.019170735759859
-0.9649109374093471 -0.2619624525609635 0.01795985289636348
-0.950814551932932 -0.3092885157076061 0.01709683842009207
-0.9352896638022717 -0.3534817481916713 0.01684928722506771
-0.9156035271997131 -0.4017285429883291 0.01686293948035101
-0.9018517221850972 -0.4317032812857259 0.01719732883069006
0 0 0
0 0 0
0 0 0
0 0 0
0 0 0
0 0 0
0 0 0
0 0 0
0 0 0
0 0 0
0 0 0
0 0 0
0 0 0
0 0 0
0 0 0
0 0 0
0 0 0
0 0 0
0 0 0
-0.8357223058043431 0.5490358537236429 0.01130747129211734
-0.8570827142193825 0.5150350743458156 0.01216935412976917
-0.8780003639244919 0.4784617172012005 0.01377483652671059
-0.8998427977558042 0.4359341439977733 0.01563206396912438
-0.9201049697957399 0.3912721611908498 0.01769012250442244
-0.938871336027791 0.3437065832499057 0.01965703477297013
-0.9559187732366236 0.2928500020961183 0.02140502852349194
-0.9707886044104489 0.2388322084836002 0.02299264529492605
-0.9827807422939662 0.1831470008943724 0.02447832999853403
-0.9916717312223334 0.1261969560528985 0.02571975461551269
-0.9973130811187937 0.06826790438607791 0.02657275785595331
-0.9995889401928226 0.009736559955439242 0.02696571980168448
-0.9984384738129315 -0.04896652993089245 0.02688666875294136
-0.9938629478279211 -0.1074354236991917 0.026345220996789
-0.9859148827432772 -0.1653165763532512 0.02534311678047715
-0.9747357679409675 -0.2220774903859856 0.02391173269326412
-0.9608919584350063 -0.2760271674149709 0.02226313238978437
-0.9448370141175101 -0.3268837637520183 0.02073696575735902
-0.9268513205210749 -0.3749199431556254 0.01953627069124426
-0.9069829043164434 -0.42075341281547 0.0186702137599856
-0.8876277395611014 -0.4602000214756193 0.01824653927430358
-0.8678284431147248 -0.4965287807882183 0.01824727842822697
0 0 0
0 0 0
0 0 0
0 0 0
0 0 0
0 0 0
0 0 0
0 0 0
0 0 0
0 0 0
0 0 0
0 0 0
0 0 0
0 0 0
0 0 0
0 0 0
-0.7619400826352176 0.6475410461605929 0.01174325385410569
-0.7824197376678241 0.6226255461563986 0.01252131707365241
-0.8135558503162791 0.5813438214364508 0.01289339729548365
-0.8394442342833413 0.5432544421673865 0.01442180965953198
-0.8637336703627925 0.5036702864756009 0.01674482616226298
-0.8874123646855729 0.4605632414467387 0.01951398552915419
-0.9098736592261901 0.4142740107421284 0.02251595589738854
-0.9307826985954681 0.3646806271568999 0.02552661692796825
-0.9497500522992527 0.3117199774603375 0.028381222836464
-0.9662892453490107 0.2555877833542436 0.03098353309264113
-0.9798531559549116 0.1969338599614378 0.03323924737246391
-0.9900465908983539 0.1363173220087804 0.03500479354176241
-0.996581393784177 0.07429070584305919 0.03614438529739357
-0.9992653679424645 0.01144890498991924 0.03657385685626238
-0.9980102139222 -0.05157698626210179 0.03626882125301018
-0.9928389705142264 -0.1141398140419474 0.03525452423051526
-0.9838917200363438 -0.1755796432928114 0.03359869201461557
-0.971444868546682 -0.235174796606275 0.03142741503076831
-0.9559563308953596 -0.2920771998707956 0.02895518497120128
-0.937896087061992 -0.3459070138191295 0.02644366964957991
-0.9176926822088536 -0.3965594136887611 0.02409922063356489
-0.895766252483564 -0.4439787654009619 0.02203807579143137
-0.8728134316874964 -0.4876307383808537 0.02032182206493001
-0.8481087750086794 -0.5294867038829451 0.0188503624487903
-0.8184412924874114 -0.5743314723707414 0.01723979686629225
-0.7987730573699053 -0.6014032207139312 0.01660629202573125
0 0 0
0 0 0
0 0 0
0 0 0
0 0 0
0 0 0
0 0 0
0 0 0
0 0 0
0 0 0
0 0 0
0 0 0
0 0 0
-0.7150131450871361 0.6990334297079857 0.01041472531044819
-0.7400396984426145 0.672462399518524 0.01164327972491266
-0.7654082125701136 0.6434077303226658 0.01329513788039338
-0.7934085727945563 0.6084980259164018 0.01526397955798085
-0.8205958336547272 0.571225281087116 0.01800433379628047
-0.8470687587719804 0.5310490856408266 0.02147991044063342
-0.8728828110405726 0.4872640085082053 0.0254830179221908
-0.897644178565433 0.439713141161921 0.02978728213692887
-0.9208955710297635 0.3883100950454716 0.03415578052894982
-0.9421200346823956 0.3330736757394559 0.03836361270069293
-0.9607424656889999 0.2742129054399707 0.04220423097261636
-0.9761692688153703 0.2121922809358533 0.04547520787973083
-0.9878811713088963 0.1476115659280078 0.04797517042849967
-0.995467869115519 0.08117936945885817 0.04953414512101181
-0.9986531055747151 0.01369315181972373 0.05004470320841338
-0.9973147736641383 -0.0539929131182216 0.04947734394908098
-0.9914963146844904 -0.121005773222411 0.04788173779135287
-0.9814079413766322 -0.1864910537394045 0.04538214933260097
-0.967418112875103 -0.2496469994106437 0.04217310240468048
-0.9500291490113391 -0.3097768089157537 0.03850902084918409
-0.9297951872847025 -0.3664411234481397 0.03466717104508873
-0.9072736283257787 -0.4194044889176938 0.03089398032406638
-0.8830135634080487 -0.4685484749759596 0.02737468602782004
-0.8575424122004039 -0.5138423571164119 0.02422897667178017
-0.8310054016383613 -0.5558484750540065 0.02150570222058975
-0.8035195545013144 -0.5949660131013927 0.01928130670473819
-0.7784919552855843 -0.627395930479974 0.01801726873848373
-0.7540385393644274 -0.6565876253882026 0.01784856689601231
0 0 0
0 0 0
0 0 0
0 0 0
0 0 0
0 0 0
0 0 0
0 0 0
0 0 0
0 0 0
0 0 0
-0.6618737404519345 0.7495549248464236 0.009516634837850722
-0.6885690581586642 0.7250920270539476 0.01068664817828241
-0.7151462477183973 0.6988594349384828 0.01270175467251121
-0.7423772549939042 0.6698040137161951 0.01544650372706884
-0.7707242214606287 0.6368888161438095 0.01888942362392202
-0.7992770338107126 0.6005171252923295 0.02313882999170263
-0.827723304568061 0.5604293025405583 0.02816252703206376
-0.8557890143677764 0.5162195899010565 0.03380085634734929
-0.8830252862800552 0.4676328276088049 0.03982313815634943
-0.9088735444698912 0.414532424577741 0.04595377173242231
-0.9326908402232549 0.3569245044444973 0.05189118124198087
-0.9537727077357567 0.2950116319404205 0.05732154043858227
-0.9713985961422588 0.2292364447044395 0.0619307664421866
-0.984903463029986 0.1602642387418239 0.06542585339179113
-0.9937410928939749 0.08895533910947867 0.06756913450537275
-0.997537333140624 0.01632035943132151 0.06821227791771432
-0.9961281355182242 -0.05654207744087936 0.06731813357228005
-0.9895768805753508 -0.1285182945699569 0.0649664943766184
-0.9781680369165334 -0.198554889848996 0.0613453117353531
-0.9623772913498078 -0.2657284177111169 0.05673056596714646
-0.9428201781722967 -0.3293059897188987 0.05145558051771143
-0.9201817247992917 -0.3887950232345698 0.04586963323845131
-0.8951602873837559 -0.4439193119695468 0.04029521499527436
-0.8684306337036802 -0.4945737773579511 0.03500018849823069
-0.8406056275183237 -0.5408056134444099 0.03019051923269878
-0.8121620923791741 -0.5828511625527716 0.02602418131591349
-0.783620721902302 -0.6208260087168367 0.02266343102966404
-0.7560574787933551 -0.6541895235579576 0.02032623987970868
-0.7292786156342654 -0.6839506824151574 0.01908310253625166
-0.7028597723355311 -0.7110799736946286 0.01879924048708166
0 0 0
0 0 0
0 0 0
0 0 0
0 0 0
0 0 0
0 0 0
0 0 0
0 0 0
-0.60805154140141 0.7938537538700711 0.008339092622439885
-0.6334206288182902 0.7737468881170594 0.009698459496650168
-0.6596126635303673 0.7515123607912053 0.01184507021520356
-0.6868507542902299 0.7266450921285502 0.01493155773629281
-0.7151817704539108 0.6986805390646262 0.01898787883814028
-0.7445779140880785 0.6671030615030458 0.0240257192506008
-0.7746647806796302 0.6316572841923804 0.03005915669619485
-0.8051159006143535 0.5919608082966373 0.03702415453092583
-0.8355539523048571 0.5475824873541819 0.04475502575956226
-0.8654621376532682 0.4981635988310088 0.05299355704585509
-0.8941847675776095 0.443467403834016 0.06140246875243388
-0.9209449880133473 0.3834302218752746 0.06958156369163082
-0.9448766426938591 0.3182223096239693 0.07708885619314348
-0.965080254689843 0.2482997540672884 0.08347055850963926
-0.9807037432919148 0.1744211366489114 0.08830308592188194
-0.9910315075828053 0.09762732740874951 0.09124393635292288
-0.9955668641932411 0.01918142719765979 0.09207981196275777
-0.9940922499469818 -0.05952607810480084 0.09075926741004527
-0.9866947695727363 -0.137092631979067 0.08740161299916654
-0.9737517493961859 -0.212220223669255 0.08228066123724494
-0.9558797446832379 -0.2838136101828523 0.07578752126361699
-0.9338582171557369 -0.3510455615178214 0.06838014323869931
-0.9085441181808702 -0.4133810059753764 0.06052874703585356
-0.8807984532399821 -0.4705530230839561 0.05266818049452862
-0.8514320716101624 -0.5225163853740592 0.0451669619218984
-0.8211659135411966 -0.5694017513731348 0.03831694104776873
-0.7906100243907606 -0.6114652612221233 0.03234228890169415
-0.7603294004855519 -0.648958553638005 0.02742258954491373
-0.7309307788656085 -0.682039819194158 0.02370404059468719
-0.70270371302324 -0.7111649918787698 0.0212566702336062
-0.675890147967549 -0.7367287933497795 0.02007966458339584
-0.6505838334748504 -0.7591668327237011 0.02015925875204198
0 0 0
0 0 0
0 0 0
0 0 0
0 0 0
0 0 0
0 0 0
0 0 0
-0.5816239008843336 0.8134077297309585 0.009027908618169725
-0.6018554582137418 0.7985301542597706 0.01093618563271356
-0.6272106641834754 0.7787232402648263 0.01403202786387513
-0.654785329544617 0.7555922973340844 0.01834263946510916
-0.6839396769698937 0.7291463810958003 0.02391805178551267
-0.7144603103647916 0.6989983835995036 0.0307851366527168
-0.746103777049384 0.6646903599437474 0.03893429427245387
-0.778575517695824 0.6256909536139176 0.04828036671759331
-0.8114721878903859 0.5814420851208444 0.05863437499210029
-0.8442275297048443 0.5314348672467137 0.06969117564601228
-0.8760944814753201 0.4752818570235262 0.08102848827886275
-0.9061531446039764 0.4127963282606424 0.09211769590505393
-0.9333458244025667 0.3440784408673441 0.1023503717657631
-0.9565460460783568 0.2695920738821279 0.1110845418219592
-0.9746617017587077 0.1902069507441466 0.1177110148347766
-0.9867585468083733 0.1071864067184859 0.1217318549739804
-0.9921808004533849 0.02211017998911385 0.1228348450258669
-0.9906413872955907 -0.06326157027014483 0.120944679519285
-0.982259271824239 -0.147159036709211 0.1162365726874827
-0.9675348589628633 -0.2279729288771815 0.1091083882699714
-0.9472714914561094 -0.3043892910180157 0.1001193337376305
-0.9224647471896635 -0.3754660826244683 0.08991112829313876
-0.8941863866781585 -0.4406463312632495 0.07912974550506538
-0.8634861472723199 -0.4997181529775778 0.06836257055935287
-0.8313218982549784 -0.5527461855899817 0.05809953353912691
-0.7985187539489519 -0.5999952030264318 0.04871915369834697
-0.7657594086476475 -0.6418509967148268 0.04049476612832598
-0.7336175628968161 -0.678730806605774 0.0336119558135298
-0.7026074003435759 -0.7110193282767476 0.02818431832284824
-0.673214095946939 -0.7390495210916027 0.02426079950491125
-0.6463571653311021 -0.7627220176928802 0.02185265548264876
-0.6252321992115506 -0.7801574868645352 0.02095215402529809
0 0 0
0 0 0
0 0 0
0 0 0
0 0 0
0 0 0
0 0 0
-0.5057716843078828 0.862606476489629 0.01025036928670194
-0.537976196821378 0.8428919757598645 0.01071115555098056
-0.5638526974673562 0.8257714140041248 0.01310371597729122
-0.5903997280288219 0.8069279590064119 0.01718808067349784
-0.6185225494035187 0.7854338642740873 0.02288013834847911
-0.6483476181506117 0.7607450301191159 0.03020538341907578
-0.6798577146547796 0.7322956131982782 0.03919977952664081
-0.7129327304264885 0.6994576897649067 0.0498584207067438
-0.747340112864518 0.6615340751367821 0.0620920537313039
-0.7826921425653641 0.617789699908849 0.07568947517966557
-0.8183971920442396 0.5675155877317368 0.09028894581068458
-0.8536277218826633 0.5101162578769093 0.1053618331421406
-0.8873149782117695 0.4452196557010759 0.1202147562425747
-0.9181815424789009 0.3728024129410657 0.1340187149482659
-0.9448233434804912 0.2933087072846334 0.1458727248164042
-0.9658437563488963 0.2077284678340696 0.1549022981532657
-0.9800247858619254 0.1175987663713354 0.1603806386202103
-0.9865015800131594 0.02490545499202522 0.1618466896268796
-0.984896062585693 -0.06810995031535842 0.1591878782170226
-0.9753716036626326 -0.1591999261769863 0.1526617773832911
-0.9585936970123253 -0.2463576478393254 0.1428496881316729
-0.9356114743964847 -0.3280031214208645 0.1305569657881376
-0.9076969418135873 -0.4030754124808641 0.116689646822851
-0.87618405280287 -0.4710300115885675 0.1021383071957373
-0.8423391599529297 -0.5317659374782542 0.08769109046913334
-0.8072764724171023 -0.5855177270072801 0.07398437971644425
-0.7719177125113262 -0.6327418372463582 0.06148831197377119
-0.7369896938086442 -0.6740134881911301 0.05051741240666954
-0.7030512478943679 -0.7099415654300748 0.04125429079339239
-0.6705273316318421 -0.7411156349589079 0.0337744452824313
-0.63972185514757 -0.7680940046897567 0.02806328573425789
-0.6107866727737948 -0.7914309003075831 0.02401604464196976
-0.5831140515860943 -0.8121090171225918 0.02137632220535773
-0.5501642925177737 -0.8348249120773993 0.01966258918299359
0 0 0
0 0 0
0 0 0
0 0 0
0 0 0
-0.4424361590027678 0.8967508521689395 0.009389054327124044
-0.4703308811709428 0.8824294799532775 0.01034771116487861
-0.4972677634994062 0.8675112073629098 0.01220968812232005
-0.5230975185535119 0.8521275863542174 0.0157341239760364
-0.5497071143122557 0.8350907294884966 0.0211083395098332
-0.5779166728494204 0.815600791965593 0.0284194895758722
-0.6080473573679206 0.7930021088726048 0.03776329595637769
-0.6402233663602359 0.7666100430884908 0.04922482099742392
-0.6744379547774731 0.7356528110619708 0.06283618966963574
-0.7105421455318207 0.6992589775326972 0.07852860474351317
-0.7481980426047606 0.6564814012866252 0.09608256245101363
-0.7868193540901431 0.606359397132514 0.1150807783179425
-0.8255190197025603 0.5480218490140573 0.1348717950964447
-0.8630828205551075 0.4808328446528072 0.1545568515651394
-0.8979910547598807 0.4045705053796138 0.1730166805487844
-0.928510027625795 0.3196099977438997 0.1889935923265365
-0.9528634518364082 0.2270598919517795 0.2012338133148865
-0.969467927235735 0.1287913068951435 0.2086737581237465
-0.9771843742004146 0.02731485768584979 0.210629051576807
-0.9755155323239297 -0.07449379981889223 0.2069302297473765
-0.9646863530445409 -0.1737604123351685 0.1979584788654805
-0.9455822932779242 -0.2679714347655913 0.1845682442592217
-0.9195713794089763 -0.3552320153403843 0.1679246659936562
-0.8882715174275637 -0.4343736670446582 0.1493091715371466
-0.8533287826933053 -0.5049198191895213 0.1299460073137387
-0.8162510253579809 -0.5669562824885722 0.1108820875921021
-0.7783114609709049 -0.620963497827255 0.09292795105604872
-0.7405148434675569 -0.66765455686019 0.07664958778781618
-0.7036088382736203 -0.7078429720956058 0.06239334546332362
-0.6681207276687544 -0.7423489721135316 0.0503259064633351
-0.6343964689922015 -0.7719474572308911 0.04047521964100426
-0.6026157492001144 -0.7973586678173956 0.03276299242212564
-0.5727379350913938 -0.8192929582703321 0.02702417872746137
-0.5442196595562081 -0.8386268746534817 0.02302014903204427
-0.5154508964869807 -0.8566735197470525 0.02051472337038394
-0.4867417483121597 -0.8733264807714815 0.01957877507202211
0 0 0
0 0 0
0 0 0
0 0 0
-0.4130783275861955 0.9106492504542474 0.009178122123223453
-0.4318525602337027 0.9018788201262323 0.01086094044318497
-0.4548227026242891 0.8904729872102191 0.01393442594604687
-0.4791822025097919 0.8775147342793929 0.01876986735249831
-0.5050100057691714 0.8627321375985997 0.02565448942332913
-0.5327209099800625 0.8455746689838902 0.03481251560570883
-0.5626402751832936 0.8253961084699246 0.0464455042428367
-0.5949843861939422 0.8014399962799812 0.06072489232728963
-0.6298569591763337 0.772809354585611 0.07775546567356557
-0.6672152681179009 0.7384533194056804 0.09752169527386806
-0.7068079013849029 0.6971837867142553 0.1198221936147067
-0.7480947071410687 0.6477353925456909 0.1441983716662497
-0.7901652494776048 0.5888832860590687 0.1698686372414484
-0.8316800967167909 0.5196290124207924 0.1956882882947798
-0.8708686696447677 0.439449350954395 0.2201636395432105
-0.905621513932262 0.348572470311658 0.2415510431438159
-0.9337019584603358 0.2482074757272189 0.2580575551315145
-0.9530648876595675 0.1406272642828596 0.2681255162247231
-0.9622160949360027 0.02902046648923088 0.2707360322728692
-0.9605032459045694 -0.08289929466165788 0.2656336227802971
-0.9482343732489342 -0.1914343814395772 0.2533859723663618
-0.9265822036023232 -0.2934294017418054 0.2352543435537548
-0.897318856392795 -0.3866277284564051 0.2129269112878079
-0.8624823082863895 -0.4697877057568335 0.1882120596898917
-0.8240763513557223 -0.5425869483027884 0.1627807441551559
-0.7838642457164628 -0.6054019105884328 0.1380049670962444
-0.7432674599536812 -0.6590544033028413 0.114894631994441
-0.7033486912459762 -0.7045880076918345 0.09410822461094108
-0.6648474960251828 -0.7431022740484408 0.07600537700110349
-0.628238901317633 -0.775647875465217 0.06071454650664768
-0.5937916020515346 -0.8031739973424281 0.04819816724790008
-0.5616090537589492 -0.8265154856890381 0.03830695305281482
-0.531646790390188 -0.8464051102080614 0.03082336259220185
-0.5037480328648616 -0.8634740319475293 0.02550520607755697
-0.4780787777544539 -0.8780375258390585 0.02215367868394996
-0.4576900963351837 -0.8888710967572953 0.02068692983921105
0 0 0
0 0 0
0 0 0
-0.3374065324149773 0.9413236753793638 0.008159047370010044
-0.3659217530526826 0.9305988348696393 0.009331622694921772
-0.3871580310280324 0.921937525722907 0.01182614368340924
-0.4087169732973178 0.9125207743376688 0.01600850214294358
-0.43154489710044 0.9018185501936318 0.02218793170229982
-0.4560623511220107 0.8894181246115108 0.03070067591448356
-0.4826733712393105 0.8747987180792302 0.04187624079849411
-0.5117452618087699 0.8573081590690939 0.05603130740785878
-0.5435864092947079 0.8361331746579519 0.07345154774748203
-0.5784199844733001 0.8102642830069544 0.09435101083259634
-0.6163344194749547 0.7784706012472534 0.1188082756553993
-0.6572048786141026 0.7393014405897017 0.146680358152733
-0.7005885025882225 0.6911367341256802 0.1774986331870762
-0.745606240800915 0.6323132351156234 0.2103599448001967
-0.7908386977364287 0.5613518662599257 0.2438405963104734
-0.8342823726461451 0.4772930022379208 0.2759788265549186
-0.8734263805963357 0.380102608854145 0.3043819383942766
-0.9055006448349591 0.2710459689048187 0.3265006354418329
-0.9278962027668344 0.1528682858361806 0.3400587068086875
-0.93867081909442 0.02962805933134158 0.3435393303260464
-0.9369735841219025 -0.09385790478040439 0.3365578648137466
-0.9232190261909649 -0.2128159757127959 0.3199624824263254
-0.8989415397368616 -0.3232879716128086 0.2956162978355485
-0.8664053889105898 -0.4226194399314204 0.2659596041859392
-0.8281352268569993 -0.5095652061019458 0.2335280427888423
-0.7865207608196946 -0.5840842135655872 0.2005759812716315
-0.7435727795581925 -0.6469797792831871 0.1688688446658568
-0.7008298676167082 -0.6995290323401883 0.1396303318392764
-0.6593726594934352 -0.743185349131102 0.1135923974103709
-0.6198949103594132 -0.7793793749149382 0.09109385307304825
-0.5827918328765234 -0.8094087407379345 0.07218843362653671
-0.5482411054751024 -0.8343932750552283 0.05674110335592072
-0.5162650793294016 -0.8552716931124971 0.04450504269730313
-0.4867742880433065 -0.8728190594169882 0.03518070520008474
-0.4596071492040041 -0.8876661571547506 0.02846158538600821
-0.4345643562393508 -0.9003192853569236 0.02406251650755861
-0.410911605830834 -0.9114171993602387 0.02168734432482475
-0.3812398494634463 -0.9242382047262414 0.02097422478906187
0 0 0
0 0 0
-0.3076780912998329 0.9514583373902499 0.007824598690803965
-0.3226815119953971 0.9464575075550496 0.009737977667198463
-0.3402981296034448 0.940225799651945 0.01313882252172045
-0.3594527090223317 0.932982082401937 0.01838977687333953
-0.3801939461841493 0.9245441798303483 0.02589638636473917
-0.4027926383309281 0.9145799478941282 0.03607782444083185
-0.4276199864317284 0.902609534618419 0.04936775486133448
-0.4550798470231581 0.8879859130942235 0.06620688015302131
-0.4855671181777579 0.869857564301997 0.08701948960516653
-0.5194278625730769 0.8471206412101918 0.1121664603096555
-0.5569000710389098 0.8183737340221339 0.1418687503981264
-0.5980222098609003 0.7818947993350501 0.1760964488167965
-0.6425048726383722 0.7356699329859767 0.2144230359274789
-0.6895723637097768 0.6775157459774958 0.2558561493501148
-0.737801594345914 0.6053425216591416 0.2986791570431026
-0.7850157390579471 0.5175889271875148 0.3403703745689127
-0.8283203780737654 0.4138003738943996 0.37769644138195
-0.8643727913492241 0.2952166301009695 0.4070710243765542
-0.8899145543655737 0.1651190509603817 0.4251914685624171
-0.9024639397487139 0.02866517949426044 0.4298105919329945
-0.9009232641452155 -0.1078935485857226 0.4203525357310335
-0.8858318156664404 -0.2383967154899166 0.3980816504144806
-0.8591511313525886 -0.3579042032556291 0.3657374943692806
-0.8237062644305676 -0.4633534162673709 0.3268204424010157
-0.7825437837063255 -0.55361457490397 0.284844043357911
-0.7384303959706269 -0.6291022401041162 0.2427981091414127
-0.6935824344458174 -0.6912127798869909 0.2028997278192138
-0.6495997906770336 -0.7418029255073421 0.16657890521042
-0.6075275850529482 -0.7828111965271971 0.1345989004092893
-0.5679721553094891 -0.8160334636602954 0.1072241436415994
-0.5312225875577974 -0.84301968074554 0.08438234616367148
-0.4973539870983175 -0.8650489753809114 0.06579727737407616
-0.4663065996070258 -0.8831467441880971 0.0510879965637326
-0.437948070781421 -0.8981170816024817 0.03983961637204683
-0.4121378915998704 -0.9105714828141848 0.03165332515218302
-0.3888191765795269 -0.9209420512272166 0.02617988169233478
-0.368166971524803 -0.9294719073490996 0.02313124568805185
-0.3514994380064875 -0.9359246810829394 0.02220667514332534
0 0 0
0 0 0
-0.2660459359855277 0.9639219111717544 0.008608664738295489
-0.2763543505169511 0.9609952665737622 0.01078751932453316
-0.2906552494670797 0.956713238487364 0.01480895878342514
-0.3070609693362424 0.9514584907430746 0.02098336253313249
-0.3252140253030412 0.9451727205178867 0.0297382940837038
-0.3452646434270185 0.9375848575185011 0.04155671968797481
-0.3675592877432509 0.9282534185700031 0.05697157981639669
-0.3925306430223667 0.9165473286882915 0.076555134137456
-0.4206459942913763 0.9015973447899138 0.1008918993497291
-0.4523642778372881 0.8822298188162108 0.1305262691118691
-0.4880752803301084 0.8568946462042983 0.1658737050803886
-0.5280029491014132 0.8236074897163124 0.2070835305460199
-0.5720604241620506 0.7799422459573712 0.2538443697987127
-0.619655310286082 0.7231311996577062 0.3051369602586114
-0.6694670073801249 0.6503492007590291 0.358970532358286
-0.719259669068361 0.5592514885459685 0.4121932811325162
-0.7658465659725295 0.4487659457259479 0.4605303066517759
-0.8053493013265961 0.3199802996836298 0.4990241584003094
-0.8338344630020185 0.1767548945778007 0.5229510450825443
-0.8482217086686042 0.02559914162116696 0.5290223217328093
-0.8471223559440164 -0.1254142861794069 0.5163864549753105
-0.8311979997743756 -0.2683836691839833 0.48690870939676
-0.8028596498199521 -0.3972099517210835 0.4445679216325867
-0.7655003213709637 -0.5084575401280129 0.3943097613145287
-0.7226549583503161 -0.6012892978284465 0.3409119996255283
-0.677396761189101 -0.6767920218453372 0.2882467468975426
-0.6320620871841232 -0.7371366304573279 0.239012773680542
-0.5882337453572721 -0.7848768478273938 0.1948060434573051
-0.5468630468790239 -0.8224930959153025 0.1563518951911061
-0.5084338748500332 -0.8521597694700651 0.123768825645658
-0.4731146374274937 -0.8756671130581509 0.09679693672970145
-0.440878025345651 -0.8944305710127868 0.07497013008564968
-0.4115894474740445 -0.9095387792581472 0.05773504787916586
-0.3850775284882582 -0.9218093459511838 0.04452894306431312
-0.3612127681301319 -0.9318327245839776 0.03482972199383541
-0.3400472322113999 -0.9399857565214955 0.02818966835699347
-0.3221659865487508 -0.946372364704103 0.02425746143836146
-0.309778715964227 -0.9505368967026062 0.02273224895457578
0 0 0
0 0 0
-0.2169603972554748 0.9761283058643522 0.01008546048208005
-0.2259598905311339 0.9740599017922037 0.01222438512645046
-0.2379493085348364 0.9711349016770114 0.01664720134357657
-0.2516150001928306 0.9675395987049821 0.02360119945603483
-0.266793431973913 0.963171577437866 0.03349294062087229
-0.2836938635526849 0.9577696729224452 0.04685131174879021
-0.3026843005358766 0.9509190911646229 0.0643047141954152
-0.3242228049914416 0.9420119450767813 0.08656250953005069
-0.3488259016614551 0.9301808344334611 0.1143857752639819
-0.3770373926269287 0.9142105155287013 0.1485326154682283
-0.409376661508525 0.8924346061741655 0.1896608096442074
-0.4462476562516054 0.8626352680886588 0.238166797727047
-0.4877906789382741 0.8219850594985825 0.293940156327863
-0.5336654395085534 0.7671033477836297 0.3560247919643937
-0.5827762606944554 0.6943373911771422 0.4222172630107721
-0.6329993685464472 0.6003928628838989 0.4887128089357533
-0.6810482460582284 0.4833698550688805 0.5500244265045868
-0.7226770734997342 0.3440396729158818 0.599478565836838
-0.7533803015110579 0.1868468502546858 0.630481066999644
-0.76950737968217 0.0198942506029579 0.6383279810627345
-0.7693560809744114 -0.1465272257664275 0.6217885434590191
-0.7536601111031855 -0.302423050401442 0.5835552548969295
-0.7252010361342146 -0.4403989736501191 0.5292751658615606
-0.6878220184763157 -0.5567447749121021 0.4657640244879789
-0.6453970785842446 -0.6511436061011133 0.3993427289792066
-0.6011524299652663 -0.7255868973405413 0.3348722298946001
-0.5574156524643028 -0.783185206866719 0.2755153754927833
-0.5156642175351605 -0.8272731996889326 0.2229562015963802
-0.4767087098022049 -0.8608943719703619 0.1777911311299659
-0.4408967625340953 -0.8865858288305094 0.1399128761189314
-0.4082841551418915 -0.9063463829401309 0.1088130635145107
-0.3787600385763407 -0.9216938931357751 0.08379260429099022
-0.3521330968243291 -0.9337526655070613 0.06409556754850736
-0.3281940325535144 -0.9433392061097545 0.0489879496660138
-0.3067760869403905 -0.9510308101937336 0.03779987491767629
-0.2878544078866982 -0.9572059172751092 0.02994447851799502
-0.2718048614521544 -0.9620295440623372 0.02492536142538327
-0.2602896780916601 -0.9652713383447303 0.02237245737759671
0 0 0
-0.128034265096933 0.9917127936347072 0.01062835369812147
-0.1573709322980033 0.987477937185098 0.01103237237951125
-0.1713453524861112 0.9851194318060533 0.01343410806597223
-0.1824173755709493 0.9830504841392587 0.0183206638355648
-0.1934425414719212 0.9807671834681354 0.02599451828490085
-0.2053072270518216 0.9780015877131574 0.03690307508642748
-0.2184921129177092 0.9744712913358665 0.05164202702221436
-0.2334286025034187 0.96978271187593 0.07094067436856903
-0.2505867611851207 0.9633575629062748 0.09564769265399604