# OOMMF: rectangular mesh v1.0
# Segment count: 1
# Begin: Segment
# Begin: Header
# Title: 
# Desc: time = 4.22e-09
# Desc: stepsize = 2.9605907182468196e-14
# Desc: step = 27006
# meshunit: m
# valueunit: (none)
# valuemultiplier: 384000.0000000001
# xmin: 0
# ymin: 0
# zmin: 0
# xmax: 9.357999999999999e-08
# ymax: 9.357999999999999e-08
# zmax: 2.3395e-08
# ValueRangeMaxMag: 1
# ValueRangeMinMag: 0
# meshtype: rectangular
# xbase: 1.16975e-09
# ybase: 1.16975e-09
# zbase: 1.16975e-09
# xstepsize: 2.3395e-09
# ystepsize: 2.3395e-09
# zstepsize: 2.3395e-09
# xnodes: 40
# ynodes: 40
# znodes: 10
# End: Header
# Begin: Data Text
0 0 0
0 0 0
0 0 0
0 0 0
0 0 0
0 0 0
0 0 0
0 0 0
0 0 0
0 0 0
0 0 0
0 0 0
0 0 0
0 0 0
0 0 0
0 0 0
-0.9868610891395663 0.16105011574487 0.01296344710454545
-0.9914435094711043 0.1297897444039273 0.01394237336979861
-0.9960545333436631 0.08754300886234467 0.01454607180184353
-0.9990482892802618 0.04104144618637808 0.01476872984085722
-0.9998685345902779 -0.006653598439240807 0.01478658730399553
-0.9984697463330288 -0.05327323962317116 0.01483669766857642
-0.9952949636183995 -0.09569301647384604 0.01519151058928774
-0.9917673836764729 -0.1270459438946415 0.01602450671449544
0 0 0
0 0 0
0 0 0
0 0 0
0 0 0
0 0 0
0 0 0
0 0 0
0 0 0
0 0 0
0 0 0
0 0 0
0 0 0
0 0 0
0 0 0
0 0 0
0 0 0
0 0 0
0 0 0
0 0 0
0 0 0
0 0 0
0 0 0
0 0 0
0 0 0
0 0 0
0 0 0
0 0 0
-0.9282843024215511 0.3715611173810049 0.01518518779313385
-0.9395250105438907 0.3420895697006027 0.01635484223579477
-0.9535432900793066 0.3007889453021577 0.01676914812226074
-0.9676272325356727 0.2518585036324074 0.01627369052793087
-0.9812787168659517 0.191978631423451 0.01537156149158187
-0.9896393600448558 0.1427033203568602 0.01580187992407699
-0.9954734428945966 0.09363122141683369 0.01630395251371178
-0.9989175267032641 0.0434655068380119 0.01656878270567234
-0.999835765488934 -0.007230952013591458 0.01661792352051051
-0.9982023936053609 -0.05759518838811335 0.01657635892062201
-0.9941171824615811 -0.1070363706288871 0.01656028071145953
-0.9874904962450097 -0.1568167481972696 0.0164629071132003
-0.9759823666535374 -0.2173030321131853 0.01542116129787948
-0.9635623909136732 -0.2671255609362387 0.01383667269342383
-0.9508623238804468 -0.3093430256881264 0.01295119619150046
-0.9405297499559835 -0.3394540651856877 0.01321843699706788
0 0 0
0 0 0
0 0 0
0 0 0
0 0 0
0 0 0
0 0 0
0 0 0
0 0 0
0 0 0
0 0 0
0 0 0
0 0 0
0 0 0
0 0 0
0 0 0
0 0 0
0 0 0
0 0 0
0 0 0
0 0 0
0 0 0
-0.879096331465571 0.4764336655225849 0.01416341627178892
-0.8941378828318034 0.447534057446477 0.01518926958589574
-0.9159365048304169 0.4010036060726978 0.01601333930607933
-0.933356666488962 0.358533053330532 0.01730268158690002
-0.9496041433883272 0.3129194932009334 0.0182581936289297
-0.9645955041083386 0.2630670631793014 0.01874123059451803
-0.9777863160075115 0.2087348296885758 0.01907068701802705
-0.987693650127186 0.1551560927481064 0.01969366348793754
-0.9946398640363404 0.1013924495165614 0.02027589827359301
-0.9986785450792346 0.04708283007360707 0.02060025996637789
-0.9997587319526144 -0.00757213041798741 0.02061894093867929
-0.9978562396721837 -0.06219413324939464 0.02036700116966709
-0.9929839089479398 -0.1165676503225612 0.01987308402704328
-0.9850817807978135 -0.171028491603995 0.01905623782046321
-0.9738571116707524 -0.2264694843467607 0.01771718679732643
-0.9605593952055477 -0.2776064022305614 0.01613486048763904
-0.9457440125137373 -0.3245692246699075 0.01493590277118772
-0.9295754058474216 -0.3683513363859434 0.01438255284329544
-0.9092162574043121 -0.4160862658223561 0.01407183945695905
-0.8950293708466257 -0.4457814916187617 0.01418756681198304
0 0 0
0 0 0
0 0 0
0 0 0
0 0 0
0 0 0
0 0 0
0 0 0
0 0 0
0 0 0
0 0 0
0 0 0
0 0 0
0 0 0
0 0 0
0 0 0
0 0 0
0 0 0
0 0 0
-0.8417332655651505 0.5396976778155026 0.01454394037326981
-0.8629743897468363 0.5050176439100295 0.01524408018338528
-0.8837279027338244 0.4677025146106632 0.01671381932826137
-0.9053250004290918 0.4243204886208781 0.0184056114976745
-0.9252595723801684 0.3787918132192554 0.0202851166359996
-0.9435990557050438 0.3303560099686944 0.02203925475402267
-0.960109793669909 0.2786315554215081 0.0235295648603011
-0.974324291590792 0.22377769229495 0.02481369072200411
-0.9855554869167972 0.1673511937286714 0.02596074278180122
-0.993592505375166 0.1097912198437472 0.02682948578564356
-0.9983052992236484 0.05140382629580417 0.02727959281462187
-0.9996011708321433 -0.00742085271900256 0.0272475726612582
-0.9974453682335223 -0.0662431522085825 0.0267316698872883
-0.991866071001916 -0.1246537941583515 0.02575128729109669
-0.9829410207229083 -0.1823065688871703 0.02431593553194932
-0.9708344977648049 -0.2386959075447915 0.02246423092666485
-0.9561459628529537 -0.2921777225865512 0.02042244216869268
-0.9393362547564496 -0.3424964564601773 0.01853585208042689
-0.9206847056589657 -0.3899366091299822 0.01700334160906281
-0.9002234697588093 -0.435140574021983 0.01582356897885168
-0.8803870472976374 -0.4740146278552557 0.01512545965550544
-0.8601579913281612 -0.5098106381062489 0.01487760827558292
0 0 0
0 0 0
0 0 0
0 0 0
0 0 0
0 0 0
0 0 0
0 0 0
0 0 0
0 0 0
0 0 0
0 0 0
0 0 0
0 0 0
0 0 0
0 0 0
-0.768099618473889 0.6401411713070864 0.01556460400579818
-0.788579725680986 0.6147177829685799 0.01625003221825313
-0.819725899633205 0.5725200931465123 0.01643753065520966
-0.8455910118090235 0.5335327836085046 0.01784963760840964
-0.8697928749046394 0.4930086122589634 0.02007144747178461
-0.893295268222947 0.4488957062750026 0.0227202257550224
-0.9154737362420193 0.4015644638978829 0.02556989607884595
-0.9359765212652672 0.3509165973521435 0.02838121461392417
-0.9544014059274645 0.2969145570729946 0.03097906005394567
-0.9702541175279922 0.2397926109961167 0.03326336019769367
-0.9829922155291448 0.1802534253668034 0.03514266427914461
-0.992235544868879 0.1189030723460159 0.0364785263605324
-0.9977210266615875 0.05632965162483729 0.03714462686811917
-0.9992891857492446 -0.006847773576048323 0.03707062505086745
-0.9968892035096907 -0.06998545515444399 0.03624847572849546
-0.9905832025918022 -0.1324365815779134 0.03471988771474555
-0.9805483442493679 -0.1935570112801372 0.03256728380021055
-0.9670928221427997 -0.2526573337944547 0.02992899997915189
-0.9506999382090692 -0.3089320876225122 0.0270294788419569
-0.9318507414504961 -0.3620383431241567 0.02413366458031848
-0.9109754258508559 -0.4119028096563905 0.02144408760061039
-0.8884870641434509 -0.4585053063929356 0.01906884525268656
-0.865074757089297 -0.5013526776045932 0.01706333219502446
-0.8399701843736445 -0.5424166289547374 0.01530653444394473
-0.8098692956623011 -0.5864578709744273 0.01337495852664407
-0.7899197382601778 -0.6130820875796362 0.01253638687845799
0 0 0
0 0 0
0 0 0
0 0 0
0 0 0
0 0 0
0 0 0
0 0 0
0 0 0
0 0 0
0 0 0
0 0 0
0 0 0
-0.7210603811051601 0.6927196832052885 0.01453847655172353
-0.7462003673290765 0.6655369092986063 0.01567272022366815
-0.7716848135242345 0.6357706144873011 0.01727062044358326
-0.7997954675157195 0.5999660911589091 0.01918070907997749
-0.8270554985925764 0.5616942923020891 0.02187976789272069
-0.853529914774577 0.5204286682120229 0.02531177370241942
-0.8792445916285505 0.4754720951036603 0.02924439894541207
-0.9037792847979288 0.4266911692570767 0.03343127948751462
-0.9266532798229783 0.3740302314532718 0.0376176149207809
-0.9473311078972404 0.3175470406215213 0.04156499732588013
-0.9652268723455329 0.2575008871362612 0.04505971622300948
-0.9797489590778133 0.1944160470903488 0.04789966408758977
-0.9903950910914778 0.1289513248444352 0.04989107498107843
-0.9967868395743842 0.06186528177834782 0.05087910535569127
-0.9986918938758614 -0.006009209372273845 0.05077785451714643
-0.9960396533212879 -0.07380060384427917 0.04958306045241397
-0.9889271253545419 -0.1406386454296135 0.04736994985985111
-0.977614216851645 -0.2056921120146397 0.04428541593460678
-0.9625098963040339 -0.2681997393300287 0.04054132879052837
-0.94414444261687 -0.3275150624901229 0.03640268283753302
-0.9230853005285412 -0.3832492137229335 0.03214915440389616
-0.8998907973816689 -0.4352141123349259 0.02802194162270141
-0.8751001913341443 -0.4833365575147305 0.02419560490570407
-0.8492218155912363 -0.5276273791604191 0.02077634915549008
-0.8223667858368331 -0.5686793196230218 0.01779609466970104
-0.7946105526463358 -0.6069261740441996 0.01531955884331621
-0.7693745380269875 -0.6386480911525315 0.01383603639003732
-0.7447274386918988 -0.6672328999318307 0.01346474314508613
0 0 0
0 0 0
0 0 0
0 0 0
0 0 0
0 0 0
0 0 0
0 0 0
0 0 0
0 0 0
0 0 0
-0.6676516635965236 0.7443431785429847 0.01394591887686686
-0.6945424373165148 0.7192946222415537 0.01503493201896875
-0.7213429255988566 0.6923685911953025 0.01703283930277794
-0.7488014707200316 0.6624985624622276 0.01979929753801809
-0.7773648660826022 0.6286190319693378 0.02328041293254683
-0.8060943132677405 0.5911442962618456 0.02757497261098036
-0.8346425057505692 0.5498246265665081 0.03263077711931041
-0.8626989833979006 0.5042682025741411 0.03826282682804353
-0.8897789471545907 0.4542449561767432 0.04421475984845014
-0.9152904454330044 0.39965568068365 0.0501870241829496
-0.9385629407943981 0.3405575084077518 0.05585865765013243
-0.9588747787978761 0.2772180709676502 0.06090402051013179
-0.9755043259892318 0.2101555140033197 0.06500746042028085
-0.9878056670966994 0.1401121901416399 0.06788621528231693
-0.9952727434600713 0.06801639048266037 0.06932486387417319
-0.9975894093977197 -0.005072016920787832 0.06920726047072946
-0.9946609042018573 -0.07803087051123128 0.06753420540438999
-0.9866225070426554 -0.1497518122911908 0.06442377909102018
-0.9738241326767829 -0.2192142268335212 0.06009726591195638
-0.9567929716645912 -0.2855488422618737 0.05485497293904538
-0.9361778135969293 -0.3480888482176388 0.04904339991670496
-0.9126778899125473 -0.4064097765321767 0.04301351884984234
-0.886989035416312 -0.4602994147458827 0.03707964179758917
-0.8597697500414315 -0.509709798081682 0.03149442257328231
-0.8316056324847009 -0.5547366432335545 0.02644482319260119
-0.8029372959206003 -0.5956548166771015 0.02206894173000347
-0.7742476960726002 -0.6326118516070623 0.01851351756295289
-0.746588338906135 -0.665094079822113 0.01599115990022481
-0.7197320635518345 -0.694099235527211 0.01456049229794881
-0.6932049582122132 -0.7206028946016414 0.01408382766646869
0 0 0
0 0 0
0 0 0
0 0 0
0 0 0
0 0 0
0 0 0
0 0 0
0 0 0
-0.6134526677100115 0.7896238065858588 0.01304103340721751
-0.6390450830134007 0.7690356837335696 0.01433523703454706
-0.6655223741448584 0.7461956593374452 0.01649264983396493
-0.6930830662904538 0.7205898129232575 0.01965158346409802
-0.721752018336713 0.6917415663779818 0.02382497370022513
-0.751479061146337 0.6591190339292041 0.02900551276657375
-0.7818595147845343 0.6224608529413327 0.03518786291379953
-0.8125288754239401 0.5813854346294457 0.0422824195504141
-0.8430660930212851 0.5354720486822857 0.0500923934127827
-0.8729075386673679 0.4843867678837179 0.05832570648386547
-0.9013512077500304 0.4279356010224751 0.06661172318063906
-0.9275797164060374 0.3661180199203051 0.07452157541094734
-0.950699294680492 0.2991876282689128 0.08159420435813675
-0.9698038026773786 0.2276990736258684 0.08737114044360744
-0.9840619178371051 0.1525139487744727 0.09144198867027825
-0.992808402978739 0.07476608624251567 0.09349602837972168
-0.9956228129788216 -0.004213370373116989 0.09336734860879758
-0.9923802506269195 -0.08300213553384718 0.09106087888040998
-0.9832638174756325 -0.1602068970524646 0.08675261022048018
-0.968736679326714 -0.2345768415456911 0.08076479144712805
-0.949480543206937 -0.305092019998464 0.07352249590918596
-0.9263139720468649 -0.3710149995739589 0.06550034566240513
-0.9001069529233338 -0.4319018740828086 0.05716856183977718
-0.8717113476254311 -0.4875688384204825 0.04894848539388644
-0.8419120679440719 -0.5380406801824944 0.04118611803623125
-0.8113927913763701 -0.5835030088823953 0.03414640138657438
-0.7807201901418385 -0.6242519586233903 0.02802636008746064
-0.7504158928104694 -0.6605662870764751 0.02298191017878272
-0.7210483689998989 -0.692620291329995 0.01914109716128421
-0.6928689248608315 -0.7208734038019307 0.01655864285541676
-0.6660786797618571 -0.7457260607323402 0.01522611937846302
-0.6407274192890718 -0.7676192172898979 0.01513642687062351
0 0 0
0 0 0
0 0 0
0 0 0
0 0 0
0 0 0
0 0 0
0 0 0
-0.5868018461560225 0.8096113703243768 0.01389324977707001
-0.6072973757966927 0.7943166309782421 0.01584257244973298
-0.6330202325011497 0.7739008500907677 0.01904887064832738
-0.6610169920176932 0.7500016923740912 0.02353715573045281
-0.6906216338092347 0.7226206849719782 0.02934458323595302
-0.7215957859380979 0.6913528805473091 0.03647898402253519
-0.7536637330068863 0.6557243586208877 0.04490593570285874
-0.7864887783376059 0.6151945179679352 0.05450785825199168
-0.8196156756137923 0.5692081282076148 0.06505575355438928
-0.8524186647197134 0.5172776255736607 0.07619893777695158
-0.8840880956719159 0.4590616426796001 0.08746797877801696
-0.9136458946445515 0.3944489399964409 0.0982914692882368
-0.9399910627830149 0.3236452981398441 0.1080301942978385
-0.9619807383224788 0.2472442786930732 0.1160315722123931
-0.9785436921594258 0.1662551089582499 0.1217024292291607
-0.9888083837316581 0.08206953289820416 0.124589614462265
-0.9922191764109879 -0.00363807737926517 0.1244502726203626
-0.988612962762185 -0.08906459382141137 0.1212926542953068
-0.9782368582108777 -0.1724561354209409 0.1153756065786199
-0.9617035494410251 -0.2522726982366199 0.107167013194118
-0.9398979210256846 -0.3273070017094895 0.09727293911227015
-0.9138598063649201 -0.3967404778954029 0.08635535600064023
-0.8846695306533856 -0.4601373813160287 0.07505605804427248
-0.8533567233642099 -0.517391548284646 0.06393972515358337
-0.8208395709086204 -0.5686511963136212 0.0534622835430618
-0.7878926699295604 -0.6142412630281683 0.0439637517146645
-0.7551447347619668 -0.6545864190617867 0.0356798198025917
-0.7231177436883132 -0.6901256544436206 0.02876299431364217
-0.6922795303412203 -0.7212531809963793 0.02330023118217453
-0.6630731651701575 -0.7483052047694891 0.01932092508451313
-0.63637829764425 -0.7711935453492562 0.01682789051100278
-0.6153520944747475 -0.7880933995163409 0.01583014416604209
0 0 0
0 0 0
0 0 0
0 0 0
0 0 0
0 0 0
0 0 0
-0.5100550710893516 0.8600035088994469 0.01542041298651864
-0.5427083424964524 0.8397716979445343 0.01584772274197073
-0.569013273604793 0.8221235895956235 0.01834932946902392
-0.5960344648770358 0.80263947284791 0.02264493994635049
-0.6246819073065741 0.7803541310842658 0.02863467798912153
-0.6550706548989454 0.7546937519919805 0.03632874611836508
-0.6871624448987411 0.7250623706782888 0.0457420260500537
-0.7208048549546788 0.690803570311571 0.05684002391405232
-0.7557194280901585 0.6511979985044086 0.06949325687385462
-0.7914578843317079 0.6055017401177318 0.08343895998617867
-0.827354610842285 0.5530194402030538 0.09825399063402722
-0.8624994939436603 0.4932017761644373 0.1133429792054789
-0.8957421959137742 0.4257641157664617 0.1279485685155242
-0.9257393915899609 0.3508152584367942 0.1411921857135643
-0.9510547474244643 0.2689700826508288 0.1521511158033166
-0.9703096995991382 0.1814086737008119 0.1599686843414735
-0.9823634233740276 0.08984711420973195 0.1639804881229589
-0.9864825399551475 -0.0035959883799779 0.1638269429343394
-0.9824550541362977 -0.09662086022345577 0.1595195159587782
-0.9706154686438144 -0.1870073361089725 0.151439322075785
-0.9517755630534707 -0.272851662513659 0.1402684848345499
-0.9270849233423365 -0.3527265672894718 0.1268759773933542
-0.8978627578994057 -0.425741452037786 0.112190391718855
-0.865441887676943 -0.4915119782781066 0.0970892077592095
-0.8310515614069618 -0.5500693786671204 0.08232242061442416
-0.7957472572491457 -0.6017453702151727 0.0684749005480538
-0.7603829841236792 -0.6470594993133504 0.05596178878059962
-0.7256181623336949 -0.6866215348917247 0.04504609100025144
-0.6919503452664686 -0.721053621806949 0.03586633748650639
-0.6597518067760521 -0.7509443472668682 0.02846297179971447
-0.6292822612403581 -0.7768424583166745 0.02279540841324637
-0.6006573077135325 -0.7992869029577185 0.0187415434419973
-0.5732416006113513 -0.8192295090627222 0.01603367735070032
-0.5404698368652887 -0.8412440869868236 0.0141683290656692
0 0 0
0 0 0
0 0 0
0 0 0
0 0 0
-0.4459415650899641 0.8949406213730207 0.01474465128730818
-0.4742142591217144 0.8802698046222235 0.01568143858181869
-0.5015961940023059 0.8649222406287128 0.01762883513473222
-0.5279173032295208 0.8490270286812962 0.02136411756845551
-0.5550776126263751 0.8313580472876929 0.02706734510434387
-0.5839006574708814 0.8110782347684462 0.03481550358637933
-0.6147011365184291 0.787493050099815 0.04469014217297956
-0.6475859620989557 0.7598758960036485 0.05675424534800373
-0.6825172993277802 0.7274120199105542 0.07100626316009163
-0.7192976606890107 0.6891912241546028 0.08732887194734699
-0.7575202972934981 0.644240652559979 0.1054370939350193
-0.796509277154367 0.5915995473561555 0.1248316745662695
-0.8352713011383212 0.5304378182740886 0.144767311363167
-0.8724805713925419 0.4602168600476371 0.1642500967136284
-0.906520051376568 0.3808776093055542 0.1820814191012075
-0.9355992158093654 0.293019004166467 0.1969618505553594
-0.9579519370624533 0.1980096195429098 0.2076542242449332
-0.9720881738805551 0.09797180790321436 0.2131809256423814
-0.9770409758945424 -0.004396017457064762 0.2130061183477051
-0.9725355458735243 -0.1061390378737299 0.2071451584076356
-0.9590250236513117 -0.2044295497846629 0.1961620839648684
-0.9375841158626553 -0.2969086771528734 0.1810559667985925
-0.9097018823461214 -0.3819012687517335 0.1630763814344032
-0.8770417742760556 -0.4584736089334259 0.1435258725326825
-0.8412311802951182 -0.5263587892739834 0.1235982453488234
-0.8037157698241758 -0.5858047713914728 0.1042771842298968
-0.7656846297273363 -0.6374010523332438 0.0862956909919884
-0.7280535057828047 -0.6819224179216185 0.07014206051507696
-0.6914871848691961 -0.7202076075489148 0.05609345051199334
-0.6564416860268795 -0.7530772714297993 0.04425987010866256
-0.6232047399331139 -0.7812918170904462 0.03462583821957076
-0.5919096894521474 -0.805549188349434 0.0270818146037085
-0.5624791362490962 -0.8265334030596855 0.02144189616254
-0.5343395071228666 -0.845089703795427 0.0174551902495723
-0.5058552670720848 -0.8624899676330395 0.01488302750745016
-0.4773123313029801 -0.8786249382127077 0.0138259298721201
0 0 0
0 0 0
0 0 0
0 0 0
-0.4162067805935969 0.9091521827682801 0.01463640514554009
-0.4352905322139553 0.9001407241438025 0.01639601484390919
-0.4586954074245935 0.8883760290291396 0.01966098303754399
-0.4835733442917913 0.874951840849486 0.02482129901008247
-0.5099999003654582 0.8595727463914239 0.03216823414996377
-0.5383913924385541 0.8416514753599336 0.04192257831433458
-0.5690700202651905 0.8204958972679185 0.05427517482135377
-0.6022390605055284 0.7952955759154398 0.0693762274179483
-0.6379741721464707 0.7650939033845604 0.08729418467344731
-0.6761836990751486 0.7287804155043653 0.1079569871862524
-0.716540904014228 0.6851179493149691 0.1310821437150136
-0.7584006028771678 0.6328192485282889 0.1561035689779048
-0.8007198382879536 0.5706871778168729 0.1821095429886249
-0.8420109551752357 0.4978255948947802 0.2078153710208771
-0.8803642180439742 0.4139074902321939 0.2316018849610417
-0.9135771371827847 0.3194520539061395 0.2516489611980455
-0.9394072420300411 0.2160236954560234 0.2661724941143133
-0.9559195009138559 0.1062493705880785 0.2737315820694445
-0.9618435283815346 -0.006415053969414152 0.2735249056176213
-0.9568238270791967 -0.1181482889657056 0.2655732398943745
-0.9414710436343654 -0.2253311010253544 0.2507153144678633
-0.9171998540803559 -0.3250410905587042 0.2304185693979141
-0.8859235714366064 -0.4153378675026456 0.2064797360308328
-0.8497159565822058 -0.4953015378233503 0.1807185097310476
-0.8105334826979835 -0.5648803161085365 0.1547439882470295
-0.7700422534076163 -0.6246441190151802 0.129825469560749
-0.7295474946522045 -0.6755307873621812 0.1068578886770769
-0.6899982890538395 -0.7186367708513137 0.08639185542150137
-0.6520350715920175 -0.7550702522833027 0.06869628469445496
-0.6160524978558047 -0.785863690868055 0.05382916738034599
-0.5822570547336998 -0.8119345340951245 0.04170173325618101
-0.5507051140210485 -0.8340812585895947 0.03212991535409357
-0.5213162669864225 -0.8530009336496573 0.02487482599241886
-0.493904939214838 -0.8692930618562521 0.01968460382554505
-0.4686118028853392 -0.883252611737773 0.01636465871792137
-0.4484576934473012 -0.8936804536416276 0.01486418402805578
0 0 0
0 0 0
0 0 0
-0.3394634758619022 0.9405180644292759 0.01379561662137071
-0.3684034601823087 0.9295456369025161 0.0149599278473121
-0.3900239746879762 0.9206365832697108 0.01759490591237252
-0.4120292008156546 0.910903445451269 0.02206469442841525
-0.4353857490868118 0.8997867867001133 0.02868776693993019
-0.4605238629490653 0.8868417744269183 0.03780791961725439
-0.4878547977347967 0.8715055580091534 0.04975699635522737
-0.5177484257027907 0.853071836465653 0.06484604468585257
-0.5505064228270248 0.8306603800841669 0.08334273444410004
-0.5863296043506131 0.8031832130412627 0.1054244817429356
-0.6252605083857902 0.7693245521462406 0.1311069415329681
-0.6670961419196307 0.7275539517216083 0.1601498822048101
-0.711275931027064 0.6761973041452702 0.1919472735108568
-0.7567618637351096 0.6135940738098254 0.2254191522067839
-0.8019447096912746 0.5383633155506353 0.2589394196863504
-0.8446293459209743 0.4497748169808581 0.2903513079339263
-0.8821615402466912 0.3481680964353067 0.3171277243228658
-0.9117377611451272 0.2352917385258967 0.3367076665054292
-0.9308740096471227 0.114389970274959 0.3469704783752959
-0.937915248732367 -0.01009747469280165 0.3467175034522046
-0.9324026901383322 -0.1332078968609604 0.3359774987059105
-0.9151475034728233 -0.2502980591267255 0.3159998868431008
-0.8879875327951509 -0.3577604606355796 0.2889387381542977
-0.8533441471243206 -0.4533936948702397 0.2573672939994067
-0.8137553895376746 -0.536388670961641 0.2238065228325372
-0.7715209773819379 -0.6070461728193133 0.1903951825153228
-0.7285089784592065 -0.6663913698198189 0.1587362924286321
-0.6861041240132656 -0.7158146052063161 0.1298868045080578
-0.6452476124665107 -0.7568020606595324 0.1044325599980793
-0.6065193486189775 -0.7907667371140665 0.08259689597547737
-0.5702277939350244 -0.8189624189150656 0.0643491991308297
-0.5364874720954167 -0.8424554835154471 0.04949697545732488
-0.5052757845563003 -0.8621315285260137 0.03775723854327322
-0.476471178411448 -0.8787179162826779 0.02881041039336502
-0.4498887058401898 -0.892805113261371 0.02234238330592911
-0.4253129592725881 -0.9048659210322549 0.01807073958757906
-0.4020054799071095 -0.9155024766649068 0.01571016693341287
-0.372597901514012 -0.9278731540847773 0.01490683454395629
0 0 0
0 0 0
-0.3093098958659725 0.9508650018927192 0.01353279331622813
-0.3245581641227308 0.9457383193848991 0.01552511991285353
-0.3425140771674926 0.9393175752666196 0.01914679444029154
-0.3620903083369587 0.9318135056732911 0.02478304366491686
-0.3833421721117412 0.9230218253172524 0.03285557895790087
-0.4065518037839575 0.9125773574293472 0.04379723218742582
-0.4321025603184039 0.8999541388452749 0.05805105805701857
-0.4604075828188509 0.8844432313945446 0.07605937235658942
-0.4918630990000337 0.8651130804286037 0.09823466757420538
-0.5268013926632797 0.8407610744169972 0.1249043971732155
-0.5654218096773819 0.8098718564961428 0.156223407966428
-0.6076873380435888 0.7706055583419059 0.1920499222443372
-0.6531839718906428 0.7208504063383088 0.2317873821998481
-0.7009547208314516 0.6583855348580733 0.2742097132374234
-0.7493444278517444 0.5812007649726015 0.317314669126411
-0.7959243941834105 0.4879920810206983 0.3582849251710971
-0.8375921848734235 0.3787754138853409 0.3936604090773578
-0.8709290794378444 0.2554413416840313 0.4198002614913551
-0.8928107335421019 0.1219709119434893 0.4336036101229861
-0.9011156066816404 -0.01593619038962604 0.4332859347251466
-0.895254021195381 -0.1518328126766525 0.4188878543574597
-0.8762742219043703 -0.2797720414945644 0.392264060071597
-0.8465072903442703 -0.3953377364118342 0.3565578235893412
-0.8089412016805045 -0.4961091180495881 0.3154201566351789
-0.7665965388299143 -0.5815366308313064 0.2722955997723208
-0.7220922778063551 -0.65245365556723 0.2299716714497407
-0.6774479900694759 -0.7104967206801956 0.1904169915042108
-0.6340702483408306 -0.7576170201490229 0.1548269064132971
-0.5928415030333242 -0.7957507051032343 0.1237730487985737
-0.5542440183818909 -0.8266383955207162 0.09737828884730741
-0.5184785237749883 -0.8517533168213448 0.07547388732499459
-0.4855601575306213 -0.8722954751718546 0.05772293663307689
-0.4553896302535645 -0.8892185986191281 0.04371005064461684
-0.4278085619168153 -0.9032665990149759 0.03300432478606761
-0.4026586301449352 -0.9150031677711957 0.02520378024187403
-0.3798694194524539 -0.9248246323337106 0.01996556018928687
-0.359603403285909 -0.9329500599791241 0.01701698945583672
-0.3431631452312826 -0.9391379914759231 0.01609001931452802
0 0 0
0 0 0
-0.2670273844431697 0.9635809734549186 0.01442510149394284
-0.2775227871043489 0.9605732762702388 0.01673569697661232
-0.2921161370334012 0.9561511274089131 0.02105193671249705
-0.3088982170872652 0.9506914579135295 0.02770637707380739
-0.3275151743196573 0.944115368726148 0.03714809719828806
-0.3481307243085879 0.9361180000234059 0.04988074603046742
-0.3711082711470048 0.926208598962493 0.06645511488377884
-0.3968965656112352 0.9136874855690008 0.0874545305893462
-0.4259730468535461 0.897593178660284 0.1134612223485763
-0.4587934676990975 0.8766329882049186 0.144993648093809
-0.495720265905931 0.8491116687097553 0.1824028290106466
-0.53691110655101 0.8128831042768762 0.2257155786456893
-0.5821565736029769 0.7653681315117234 0.2744181974233749
-0.6306703673350567 0.7037042890743052 0.3271928503251421
-0.6808647917744064 0.6251079586314588 0.3816584538269841
-0.7301920646836407 0.5275076595262976 0.4342294529556106
-0.7751835192483582 0.4104090859539035 0.480265440826436
-0.8118270825283583 0.2757618554837735 0.5146767792835032
-0.8363216266556893 0.1283949723240435 0.5329923713055271
-0.8460221195911255 -0.02441972134171758 0.5325882559464972
-0.8401762307411775 -0.1743523035622203 0.5135223223386632
-0.8200760725745103 -0.3138430642459598 0.4785162131166216
-0.788563493567462 -0.4375637193343732 0.4320944435363043
-0.7491834424477399 -0.5429702354226863 0.3793514109729736
-0.7053871635493708 -0.6299768734289596 0.3248970428373349
-0.6600312901540537 -0.7001625200170208 0.2722703464958853
-0.6151996013403545 -0.7559369802472622 0.2238051214903685
-0.5722470522589859 -0.7999075481040971 0.1807794945976801
-0.5319467627397156 -0.8344995004092798 0.1436775049456193
-0.4946560106940605 -0.8617830337372957 0.1124519179328647
-0.4604594507566097 -0.8834327912719887 0.08673867369462888
-0.4292774625772711 -0.9007570227874926 0.06601246868760187
-0.4009442165476886 -0.914753796302789 0.04969132083769978
-0.375270103654576 -0.9261685793878169 0.03720365382373532
-0.3521144149994312 -0.9355371159009461 0.02803111701926133
-0.3315202244240379 -0.9431976440619334 0.02173810097164075
-0.3140601481024077 -0.9492325788751568 0.01799262559806919
-0.3019170320862326 -0.9531909763397293 0.01652478020288981
0 0 0
0 0 0
-0.2171234107367661 0.9760127585569134 0.01601623064760154
-0.2263023451733474 0.9738846488856635 0.01832864517334678
-0.2385453409806508 0.9708563395920357 0.02311034769055996
-0.2525266460884842 0.9671049913281269 0.03063052013146978
-0.2680934436187831 0.9625063190253138 0.04132180205366563
-0.2854733255068939 0.9567643017789826 0.055740929893663
-0.3050558220858359 0.9494125669232516 0.07454343149960453
-0.3273208451779638 0.9397693932303314 0.09846091539020739
-0.3528030265018146 0.9268647325548784 0.1282645392816462
-0.3820538328440862 0.9093455570402527 0.1646982899130867
-0.415579005206465 0.8853694239099229 0.2083628413057748
-0.4537314246105372 0.8525099219313287 0.2595277005052289
-0.4965415933748397 0.8077230801491792 0.317851965296893
-0.543478256104222 0.7474606109608385 0.3820131152250706
-0.5931615223846115 0.6680519106582017 0.4492950623235196
-0.6431103923594199 0.5664737032906083 0.5152829967304723
-0.6896872223933931 0.4415140141757102 0.57393110261924
-0.7284466674321838 0.2950579491937962 0.61830919395113
-0.7549979107483422 0.132861334445095 0.6421261718502884
-0.7661867931393493 -0.03592439855852031 0.6416129951980771
-0.761065686811488 -0.2006817616341985 0.6168515631053813
-0.7411073179782088 -0.3519471677666973 0.5717456902680993
-0.709565258629506 -0.4834303274704435 0.5126521844563438
-0.6704027605713783 -0.5926230438571288 0.4464953152137056
-0.6273407815806493 -0.680146340421665 0.3792683738156875
-0.5833214000151873 -0.7485392720022858 0.3153174631297943
-0.5403745642432602 -0.8011208477674301 0.2572950011004877
-0.4997295344439631 -0.8412127025411746 0.2064741666354227
-0.4620162331664415 -0.8717334477150219 0.1631618718499297
-0.427462925798398 -0.8950583148507502 0.1270671479352862
-0.3960525733843889 -0.9130285549023662 0.09757672390739155
-0.3676331666999321 -0.9270268379283508 0.07393981676162512
-0.3419920562945695 -0.9380694229625055 0.05538222760239248
-0.3189100240256633 -0.9468903340557978 0.04117149314331252
-0.2982161947534494 -0.9540061075280704 0.03065041575430881
-0.2798833717042265 -0.9597524101803616 0.02325100850414913
-0.2642820847828468 -0.9642679779138934 0.01849990358577073
-0.2530517173135852 -0.9673195109775256 0.01605590380033039
0 0 0
-0.1267230602954196 0.991798905760382 0.01661916128664742
-0.156538637019439 0.9875244425483115 0.01706254640263601
-0.1707695453977067 0.9851145171006433 0.01967614195481478
-0.1820595848263261 0.9829702609951353 0.02497545939559291
-0.193320662440129 0.9805707407117926 0.03328879591747733
-0.2054680230109809 0.9776243503068127 0.04509458068482949
-0.2190063620853528 0.9738133088683021 0.06102337943040933
-0.2343914562674509 0.9686912311952528 0.08184096672356943