# OOMMF: rectangular mesh v1.0
# Segment count: 1
# Begin: Segment
# Begin: Header
# Title: 
# Desc: time = 2.7199999999999997e-09
# Desc: stepsize = 2.9518059359816965e-14
# Desc: step = 17406
# meshunit: m
# valueunit: (none)
# valuemultiplier: 384000.0000000001
# xmin: 0
# ymin: 0
# zmin: 0
# xmax: 9.357999999999999e-08
# ymax: 9.357999999999999e-08
# zmax: 2.3395e-08
# ValueRangeMaxMag: 1
# ValueRangeMinMag: 0
# meshtype: rectangular
# xbase: 1.16975e-09
# ybase: 1.16975e-09
# zbase: 1.16975e-09
# xstepsize: 2.3395e-09
# ystepsize: 2.3395e-09
# zstepsize: 2.3395e-09
# xnodes: 40
# ynodes: 40
# znodes: 10
# End: Header
# Begin: Data Text
0 0 0
0 0 0
0 0 0
0 0 0
0 0 0
0 0 0
0 0 0
0 0 0
0 0 0
0 0 0
0 0 0
0 0 0
0 0 0
0 0 0
0 0 0
0 0 0
-0.987746053206104 0.1555665018988306 0.01252189533276412
-0.9921531882347565 0.1243038023847812 0.01343933734572444
-0.996530325476234 0.08205205395700957 0.01395603266213009
-0.999268448555192 0.03555703905167147 0.01408064970009994
-0.9998286433544747 -0.01211477279763702 0.01399700710907383
-0.9981784512505719 -0.05869612372542256 0.01394792165947808
-0.9947776400505467 -0.101071491394696 0.01421268738543247
-0.9910839240736077 -0.1323944992744546 0.01497838458329478
0 0 0
0 0 0
0 0 0
0 0 0
0 0 0
0 0 0
0 0 0
0 0 0
0 0 0
0 0 0
0 0 0
0 0 0
0 0 0
0 0 0
0 0 0
0 0 0
0 0 0
0 0 0
0 0 0
0 0 0
0 0 0
0 0 0
0 0 0
0 0 0
0 0 0
0 0 0
0 0 0
0 0 0
-0.9302764116604483 0.3665426524249001 0.01524079595947328
-0.9413659885288255 0.3369904659633145 0.01635547281414778
-0.9551743652930017 0.2955732881037583 0.01668422148748913
-0.9690063256120489 0.2465120834429687 0.01607898132475626
-0.9823418532855016 0.186489761449437 0.01503503103213707
-0.9904328236721012 0.1371381767533888 0.01536041241842502
-0.9959931954579766 0.08802976654472759 0.01575800759895589
-0.9991563447958527 0.03785928913383212 0.01591454933296768
-0.9997922318159524 -0.0128121059076596 0.01585380530620301
-0.9978822251811128 -0.06312252430559002 0.01570387190728647
-0.9935316668359542 -0.1124810835067277 0.01558309492117481
-0.9866477655373644 -0.1621405515520901 0.01538272740801478
-0.9748455516352752 -0.222427356013307 0.01422046953671655
-0.9621951182388044 -0.2720726229887424 0.01253165022804362
-0.9493065538888863 -0.3141391766256144 0.01156046939303727
-0.9388409707581046 -0.3441499090503853 0.01176740101255554
0 0 0
0 0 0
0 0 0
0 0 0
0 0 0
0 0 0
0 0 0
0 0 0
0 0 0
0 0 0
0 0 0
0 0 0
0 0 0
0 0 0
0 0 0
0 0 0
0 0 0
0 0 0
0 0 0
0 0 0
0 0 0
0 0 0
-0.8815625888662237 0.4718451672122351 0.01447549964383117
-0.8964779138783511 0.4428190818426734 0.0154470283333359
-0.9180798810381285 0.396065463445991 0.01617036481738708
-0.935307640737022 0.3534086073074218 0.01737738357675257
-0.951334371559486 0.3076202859778652 0.01823932960427989
-0.9660728102668261 0.257598301860603 0.01861290255951207
-0.9789754964623322 0.2031079416677551 0.01881864388890363
-0.9885857887891021 0.1494149813570741 0.01932101317977804
-0.9952246056463765 0.09558600287367504 0.01978131367345157
-0.9989486897687544 0.04125837795401691 0.01998152791684305
-0.9997130751492359 -0.01336869684232088 0.01987574703993847
-0.9975003085050461 -0.06791775727530926 0.01950160965226311
-0.9923290414902365 -0.1221730690719843 0.01888953701390629
-0.9841424300049922 -0.1764686217812203 0.01795836825841641
-0.9726471797151777 -0.2317002227698644 0.0165066822985462
-0.9591166146430971 -0.2826227401764972 0.01482249137940207
-0.9441020896664013 -0.3293752647197547 0.01353437395393891
-0.9277639900126807 -0.3729443932004012 0.01290187645787804
-0.9072395250096342 -0.4204283444778621 0.01250805420106202
-0.8929485385180369 -0.4499833275436003 0.01256632369828327
0 0 0
0 0 0
0 0 0
0 0 0
0 0 0
0 0 0
0 0 0
0 0 0
0 0 0
0 0 0
0 0 0
0 0 0
0 0 0
0 0 0
0 0 0
0 0 0
0 0 0
0 0 0
0 0 0
-0.8444391228486195 0.535440615528134 0.01503047056835331
-0.8655680912064592 0.5005464038930871 0.01565812999386045
-0.886194070476798 0.4629999586238855 0.01706188049552728
-0.9076280751650337 0.4193597736179801 0.01867237112130016
-0.927372355219298 0.3735796274474479 0.02046403506735336
-0.9454875917084757 0.3249061975570579 0.02211733967546435
-0.9617381010995063 0.2729614908234662 0.02349147549528584
-0.9756567104878974 0.2179141299521203 0.02464579572959384
-0.9865654429091819 0.1613394599885591 0.02565551613219393
-0.9942599600739317 0.1036877451545356 0.02638149538124737
-0.9986183076288925 0.04526961505659844 0.02668590678679002
-0.9995570994539689 -0.01352369590141362 0.02650876421740891
-0.9970512087916531 -0.07225344091194211 0.02585202745409328
-0.9911379216787305 -0.1305130029565442 0.02473815412740168
-0.9819028284634197 -0.187961674945586 0.02317852901254043
-0.9695165810004327 -0.2441057387748622 0.02121290791969626
-0.9545866626499082 -0.2973224320920246 0.01907026129325622
-0.9375732835907358 -0.3473673396901066 0.01709588294014961
-0.9187533220766197 -0.3945282261115938 0.01548586369607817
-0.8981531715652434 -0.4394522374258389 0.01423416413836734
-0.8782122227347688 -0.4780813412272285 0.01347304752572223
-0.8578978526094452 -0.5136515567603902 0.01316634823060559
0 0 0
0 0 0
0 0 0
0 0 0
0 0 0
0 0 0
0 0 0
0 0 0
0 0 0
0 0 0
0 0 0
0 0 0
0 0 0
0 0 0
0 0 0
0 0 0
-0.7710954940516107 0.6365105894446522 0.01630976940741217
-0.7915147215726297 0.6109149879471472 0.01695060575138026
-0.8225673425733884 0.5684121326441627 0.01704741607012951
-0.8483451472693779 0.5291240317788237 0.01839212055797293
-0.872439079616472 0.4882907300693032 0.02054787790378794
-0.8957989971012867 0.443857702548704 0.02311918425278402
-0.9177957709041925 0.3962086601948667 0.02587702643208725
-0.9380730864019609 0.3452566351632699 0.02857867113837267
-0.9562268482823137 0.2909746742393852 0.03104760176496923
-0.9717638296209695 0.2336103774399801 0.03318510196966021
-0.9841475747716379 0.1738829740033524 0.03490361618589342
-0.9930068109540204 0.1124121855831439 0.03606901622371139
-0.998090102388856 0.04979459356583418 0.03656016910540046
-0.9992513400127169 -0.01334735551362972 0.03631263669277688
-0.9964535362129667 -0.07637110981260528 0.03532426580502365
-0.9897719123842705 -0.1386354590018771 0.03364180379411948
-0.9793948345355581 -0.199506529501203 0.03135128022030196
-0.9656388179937737 -0.2583100997387371 0.02859310330395133
-0.9489922753493888 -0.3142589429765158 0.02559253966436647
-0.9299363971236965 -0.3670244430539419 0.0226131710633842
-0.9088988892890009 -0.4165436636360603 0.01985410118510003
-0.8862881603524149 -0.4628065273599606 0.01741881316695397
-0.8627882711803039 -0.5053320761043576 0.01535877513871406
-0.8376199540656821 -0.5460854498531033 0.01354599607771678
-0.8074611561844449 -0.5898077363022083 0.01154623104495056
-0.7874728715546668 -0.61625707442823 0.01066277555824474
0 0 0
0 0 0
0 0 0
0 0 0
0 0 0
0 0 0
0 0 0
0 0 0
0 0 0
0 0 0
0 0 0
0 0 0
0 0 0
-0.7241453934916942 0.6894748089018082 0.01542520581948997
-0.7492610353072807 0.6620689822494158 0.01650950373221469
-0.7747213688277862 0.632044599464367 0.01806723469511884
-0.8027947137720216 0.5959224739526235 0.01992617820561476
-0.8300037842747261 0.5573007870691299 0.02257323241721598
-0.8563989639777267 0.51566233097446 0.02594561450152897
-0.8819936306791386 0.4703179952518812 0.02980299957524447
-0.906358903660383 0.4211469472665258 0.03389375405047331
-0.9290078725830481 0.3681079524709083 0.03795929407133428
-0.9494019946136234 0.3112747763147399 0.04175962468558712
-0.9669561989659627 0.2509248961650399 0.04508221119089528
-0.9810848196292146 0.1876020360871323 0.04772895084823407
-0.9912965604444975 0.1219822111065175 0.04951231588678669
-0.9972283447204704 0.05483606555037712 0.05028552874361481
-0.9986660439805309 -0.01299806803208027 0.04997182033615506
-0.995558087866925 -0.08065028480530283 0.04857597393336363
-0.9880193060601707 -0.1472588470292213 0.04618097902819053
-0.9763243229599421 -0.2120071614268297 0.04293925826732732
-0.9608922792168199 -0.274153084138483 0.03906551162934117
-0.942258460752315 -0.3330709019963772 0.03482480989175702
-0.920990241931076 -0.3883903675486339 0.03049420704288665
-0.8976422267394651 -0.4399388725373236 0.02631009701241518
-0.8727472295995744 -0.4876563111224419 0.02244093243872075
-0.8468051253059361 -0.5315642899446651 0.0189864533607755
-0.81991598237982 -0.5722610259979768 0.01597184904376351
-0.7921425184273074 -0.610187788549381 0.01345708753254093
-0.7669004308132013 -0.6416550731622909 0.01193718156102181
-0.7422517864125677 -0.670021939428219 0.01152762994718668
0 0 0
0 0 0
0 0 0
0 0 0
0 0 0
0 0 0
0 0 0
0 0 0
0 0 0
0 0 0
0 0 0
-0.6707783300911315 0.7415066261632228 0.0149784924537401
-0.6976761262628959 0.7162341235813552 0.0160219555749923
-0.7244987343044653 0.6890412772628259 0.01799172641079328
-0.751978536221778 0.6588613824407814 0.02073547178083327
-0.7805521039031167 0.6246225191135049 0.02418928913210521
-0.8092712501876914 0.5867458646040722 0.02844879592653797
-0.8377750056722566 0.5449897099020097 0.03345528316683315
-0.8657390717460764 0.4989725518524504 0.03901604990378548
-0.8926667026763945 0.4484785695177669 0.04486792413462472
-0.9179566739699432 0.3934265198882 0.0507061945199859
-0.9409329829961071 0.3338949775769049 0.05620734346120147
-0.9608737174240729 0.2701758831987146 0.06104663218750842
-0.9770636026479551 0.202812684250586 0.06491326126201254
-0.9888702231945283 0.132570567959767 0.06753314882357976
-0.9958074285842352 0.06039456282736737 0.06870270705979403
-0.9975833284534042 -0.0126475782875826 0.06831940833530309
-0.9941287935880886 -0.08543593531620292 0.06639761076828117
-0.9856028793651986 -0.1568742246377474 0.06306696307366207
-0.9723745731657089 -0.2259619173560775 0.05855682168261817
-0.9549835463705864 -0.2918548311460681 0.05317126759968453
-0.9340839222329346 -0.3539125189532949 0.04725627105549202
-0.9103738106642735 -0.4117347438247351 0.04115854205615872
-0.8845430399602006 -0.4651296548714858 0.03518543188734521
-0.8572407007861623 -0.51406549902478 0.02958113635498921
-0.8290407646785782 -0.5586501521311216 0.02452382566062206
-0.8003708356867046 -0.5991667280895143 0.02014341909089997
-0.7717009259469187 -0.635769430103777 0.01658048968475366
-0.7440725012755911 -0.6679512364103286 0.01404487890293093
-0.7172507696835662 -0.6967013582528155 0.01259169555751202
-0.690751496822112 -0.7229912818102776 0.01208205546845046
0 0 0
0 0 0
0 0 0
0 0 0
0 0 0
0 0 0
0 0 0
0 0 0
0 0 0
-0.6165737125010717 0.7871690044755586 0.01420617631887184
-0.6421912201431169 0.7663884886177332 0.01546354698381151
-0.6687228040871901 0.743303352940027 0.01760502206413878
-0.6963521801190912 0.7173999230897912 0.02076033704326923
-0.7250913210293624 0.6882011748278626 0.02493429632941438
-0.7548781422767873 0.6551734795185005 0.0301114936256352
-0.7852951385230694 0.618057725885469 0.03627937272493512
-0.8159624964706443 0.5764779910507217 0.04333970682315371
-0.8464426801366836 0.5300235831161223 0.0510861094992987
-0.8761561540716729 0.4783761237705895 0.05921720939524071
-0.9043873053249643 0.4213631946696193 0.06735473364850932
-0.9303095088516751 0.3590117165801293 0.075065338861178
-0.9530264660885187 0.2916074166688015 0.08188815224790831
-0.9716384107040713 0.2197388689691901 0.08737063756552814
-0.985330402057657 0.1442989052890412 0.09111434965624185
-0.9934628802805447 0.06644476766834 0.09282563414371872
-0.9956475783258792 -0.01248111755780425 0.0923586567589612
-0.9917939135357401 -0.09105956225610189 0.08973844881202002
-0.982116551601794 -0.1679142253105358 0.08515804135936068
-0.9671032927745814 -0.2418220871214165 0.07895124625237911
-0.9474510466410282 -0.3117970296419463 0.07154807142948461
-0.9239837037701747 -0.3771363334420338 0.06342161433650646
-0.8975680207948882 -0.4374274342296757 0.05503533255636056
-0.869046348762987 -0.4925121056509604 0.04680031505211511
-0.8391901667376325 -0.5424342442016379 0.03905066924217265
-0.8086677786427666 -0.5873924595669937 0.03203938558728282
-0.7780301328438621 -0.6276906633109831 0.02595271814627119
-0.7477842175882028 -0.6636116091537568 0.02093791112695296
-0.7184861647114416 -0.6953306028614963 0.01711677079681213
-0.6903770084452744 -0.7233036677206017 0.01453927343707408
-0.6636480144091484 -0.7479286172566725 0.01319456173261594
-0.6383394943851965 -0.7696438631525903 0.01307722522585929
0 0 0
0 0 0
0 0 0
0 0 0
0 0 0
0 0 0
0 0 0
0 0 0
-0.5899004394183353 0.8073340570380104 0.01513908585749713
-0.6104646380817866 0.7918591162997 0.01708992641092343
-0.6362893927434542 0.771183046193036 0.02031053782141551
-0.6644049813111884 0.7469603686643296 0.02482394919684248
-0.6941327074511292 0.719193772833016 0.03066107572764881
-0.7252214052811745 0.6874761408088812 0.03782154333874858
-0.7573805519277487 0.6513329343984318 0.04626130272210723
-0.7902557292677115 0.610226607621036 0.0558513178974209
-0.823371611122054 0.5636106013784176 0.06634967981935409
-0.8560815173642997 0.5110135339171927 0.07739253052265198
-0.8875563581310293 0.4521190953044251 0.08849878418538655
-0.9168032220422362 0.3868503333047623 0.09908921068899486
-0.9427146060829932 0.3154550827579829 0.1085230954218519
-0.9641530354567535 0.2385728181509843 0.1161547874993751
-0.9800667123583039 0.1572561476033485 0.121407344786627
-0.9896170300303996 0.07293004176393121 0.1238521008385488
-0.9922910015846383 -0.01271484011755787 0.123275711374705
-0.9879714591119688 -0.09787966029133137 0.1197161980745304
-0.9769474155905968 -0.1808346363170091 0.113457399401485
-0.9598632803832874 -0.2600786908250336 0.1049836061038597
-0.9376221284317245 -0.3344508864029591 0.09490705379178538
-0.9112683044089545 -0.4031788299009179 0.08388628314185284
-0.8818753211580642 -0.4658670228657864 0.07255229106327073
-0.8504582568665373 -0.5224405167555748 0.06145453424848376
-0.8179165909738604 -0.5730690854939897 0.05103208266160063
-0.7850049870378428 -0.6180905177347803 0.04160867952803244
-0.7523330836442982 -0.6579353962021517 0.03340577313247785
-0.720405994305982 -0.693043673780017 0.02656444242791739
-0.689677477789343 -0.7238073618006594 0.02116316690145947
-0.6605788497598772 -0.7505590341222871 0.01722554926079285
-0.6339784008824046 -0.7732100460448148 0.01475167481893563
-0.6130178010207479 -0.789949381592939 0.0137531869986258
0 0 0
0 0 0
0 0 0
0 0 0
0 0 0
0 0 0
0 0 0
-0.5129862358243906 0.8582318001173228 0.01683149197491208
-0.5457499286549388 0.8377710287910365 0.01722552441979558
-0.5721867868259511 0.8198856409048747 0.01974377926830153
-0.5993627450872975 0.8001152259256724 0.02408163290412102
-0.6281820726475305 0.7774827935357123 0.03012954297955831
-0.6587505036392513 0.7514067843837305 0.03788955445943001
-0.6910174239690903 0.7212844795099654 0.04736685960838095
-0.7248143888135806 0.6864547438984844 0.05851483869977894
-0.7598426471540229 0.6461975505392521 0.07118902473722634
-0.7956295389509108 0.5997750194913359 0.08510912255996847
-0.8314823338477546 0.5465075209119338 0.09983315123636527
-0.8664637932436993 0.4858738614109707 0.1147479228366777
-0.8994007548309422 0.4176313565371512 0.1290826566447622
-0.9289369292635026 0.3419434048949951 0.141953828054446
-0.9536386346277795 0.2594871091576597 0.1524460387358899
-0.9721495539418215 0.1715033242107079 0.1597243079665508
-0.9833707727551246 0.07975581262746935 0.163159227882214
-0.9866253922383348 -0.01361298479215002 0.1624346700541489
-0.9817630003582449 -0.1063093123602614 0.1576062855125527
-0.9691737396320832 -0.1961475965920466 0.1490918601357104
-0.9497100503359009 -0.2812792250622849 0.1375965764084997
-0.9245427311658919 -0.3603409185642709 0.1239966155044961
-0.8949933023764206 -0.432503643635951 0.109213492495088
-0.8623821574331531 -0.4974342288982266 0.09410739854743817
-0.8279169779825728 -0.5552010655604488 0.07940563184526421
-0.7926277862179302 -0.6061590131609127 0.0656691958154728
-0.7573431783424829 -0.6508389667645839 0.05329117712074304
-0.7226996732093923 -0.689853295315231 0.04251603563073043
-0.6891756331300852 -0.7238210055685563 0.03346787411039346
-0.6571281348584548 -0.7533242289587 0.02617671563102562
-0.6268053693196303 -0.7789036352261661 0.02059504852008684
-0.5983149006776965 -0.8010891492593748 0.01659682397113592
-0.5710188979553064 -0.8208190151645433 0.01391267487639377
-0.5383665838730259 -0.8426247806983779 0.01203745495934001
0 0 0
0 0 0
0 0 0
0 0 0
0 0 0
-0.4487021836852317 0.8935333490253358 0.01626359541034129
-0.4770721324670992 0.8786962346141308 0.01717869896825722
-0.5045932016399359 0.8631450815594198 0.01913815661292387
-0.5310863063107472 0.8470076277589258 0.02292190584142984
-0.5584473010105765 0.8290432930534208 0.02870244305179417
-0.5874938381762368 0.8084028359569394 0.03654921232708719
-0.618532303360898 0.7843801722151169 0.04653531062370998
-0.6516576918193001 0.7562374418919331 0.0587127258223165
-0.6868154029957459 0.7231501086467425 0.07306519398451494
-0.723785246557443 0.6842020858074154 0.08945626105847865
-0.7621314566922459 0.6384220699177394 0.1075774296128299
-0.8011436867925057 0.584862788538383 0.1269027647280303
-0.8397917689003319 0.5227242413369814 0.1466599891106238
-0.8767160551100622 0.4515179491060671 0.1658327481147822
-0.9102766197589388 0.3712549375487745 0.1832109354429894
-0.9386799908101255 0.2826183210907858 0.1975012897085167
-0.960184150548804 0.1870621445349339 0.2074949423886338
-0.9733517139217915 0.08677778072851135 0.212264122680552
-0.9772903019285994 -0.01550112561407034 0.2113371260829551
-0.971807649715276 -0.1168282330406994 0.2047951559960796
-0.9574307070307769 -0.2144260116393358 0.1932561170234808
-0.9352859271666134 -0.306014294342699 0.1777511915628919
-0.9068862251536295 -0.3900066703581184 0.1595373677317443
-0.8738930374396222 -0.4655512671677817 0.1399034551146716
-0.8379129746015421 -0.5324453953450562 0.1200156155266543
-0.8003607406031338 -0.5909799030060675 0.1008238024681764
-0.762391605043083 -0.6417674701545113 0.08302743408843503
-0.724889618015533 -0.6855906978786224 0.06708529403377204
-0.6884926032321175 -0.7232857526238283 0.05325087178669775
-0.6536352202194013 -0.7556646450504962 0.0416166205913157
-0.6205892143089599 -0.78347628164745 0.03215498684920905
-0.5894766140206873 -0.8074062267687925 0.02474886861426371
-0.5602126765404825 -0.8281260759119839 0.01920831689573682
-0.5322202413054572 -0.8464680151734552 0.01528116595915998
-0.5038641542971902 -0.8636890906855486 0.01273061841178621
-0.4754242977451295 -0.8796792744289299 0.01166667277938392
0 0 0
0 0 0
0 0 0
0 0 0
-0.4188728267385745 0.9079000911613182 0.01621664235609108
-0.438064294860148 0.8987635066321803 0.01799535259191166
-0.4616315364122247 0.8868157484447432 0.02131086342872967
-0.4867135925375283 0.8731578264907445 0.02655727540940244
-0.5133804949611488 0.8574863608560424 0.03402364382758137
-0.54204342995343 0.8392016803065194 0.04392561684296339
-0.5730175032327586 0.8175969522310917 0.05644612202201856
-0.6064950576767768 0.791845615879711 0.07172353606538949
-0.6425350165049798 0.760975076023288 0.08980916565861061
-0.6810213173697695 0.7238618672580801 0.1106072439652513
-0.7215938123602249 0.6792633795229926 0.1338044513550975
-0.7635649985370789 0.6259007997758066 0.1587976128569803
-0.8058433479275425 0.5626068250741825 0.184634934345798
-0.8468928592342259 0.4885432490514379 0.2099951875266235
-0.8847663961975868 0.4034716253728124 0.2332360857126421
-0.9172485769860405 0.3080242979314441 0.2525392640777352
-0.9421206732440673 0.2038859670456038 0.2661562501389432
-0.9575124956114248 0.09378398560684019 0.272716674942469
-0.9622513696417005 -0.01877325518096256 0.2715140263643504
-0.9560919834832244 -0.1299764698113585 0.2626675397046425
-0.939742463807266 -0.2362796774545245 0.2470951552326239
-0.9146826286316299 -0.3348733579318671 0.2263084687477844
-0.8828512659993972 -0.4239401502706519 0.2021098491211096
-0.8463127476116412 -0.5026682031028795 0.1762935359545439
-0.8069910277150918 -0.5710848001238965 0.1504248392214142
-0.7665092320093823 -0.6298072972519341 0.1257233692381816
-0.7261289775088878 -0.6797940839953313 0.1030374271167763
-0.6867609254071677 -0.7221430119981588 0.08287883659968356
-0.6490146979710634 -0.7579520841593936 0.06548709747698242
-0.6132619030890551 -0.788237950176445 0.05089962790851833
-0.5796927599971896 -0.8139005928312314 0.03901447162028814
-0.5483527330792443 -0.8357216920123988 0.02964006788884849
-0.5191544542288486 -0.8543833212073048 0.02253426495630429
-0.4919078925941621 -0.8704724521513127 0.01744520705667703
-0.4667493068947219 -0.8842759563894862 0.0141815889362103
-0.4466867747373788 -0.8946002552722842 0.01270072995860778
0 0 0
0 0 0
0 0 0
-0.3418427287605945 0.9396295327898782 0.01548837959843911
-0.3709098381731486 0.9285198381635051 0.01663737008022331
-0.3926770540249599 0.9194736386311507 0.01931214914684483
-0.4148702083975666 0.9095675537433233 0.02386577804190493
-0.438458027538966 0.8982300724905118 0.03061527331787811
-0.4638697416973311 0.8850042979574531 0.03990307424856137
-0.4915141753078053 0.8693122748134027 0.05205750983512665
-0.5217564951110008 0.8504291460078717 0.06738269384497693
-0.5548895471582606 0.827453001098117 0.08613432201056311
-0.5910987624992675 0.7992723865758345 0.108470756562328
-0.6304019538016014 0.7645492530358067 0.1343793746283743
-0.6725594958469439 0.7217375284031493 0.1635807587725938
-0.7169609352664834 0.6691625758249879 0.1954186900403224
-0.7625068025324799 0.6051896094673845 0.2287551369574191
-0.8075216471028492 0.5285015160532958 0.2619063515641969
-0.8497530052848069 0.4384774031191206 0.2926728497202131
-0.8865176807796148 0.3356071793547282 0.3185187950980216
-0.9150313424274515 0.2218080032088753 0.3369255883543233
-0.9328873236834435 0.1004702731339051 0.3458713135360313
-0.938556745752077 -0.02388768029399588 0.3442972752338334
-0.9317264650762429 -0.1463200942428425 0.3323796388127495
-0.9133351368010247 -0.2622909815633289 0.3114841390427419
-0.8853013171550729 -0.368354710051856 0.2838245680453077
-0.850071581616706 -0.4624796457740094 0.2519739736012789
-0.8101633196226538 -0.5439975121280725 0.2184081095941005
-0.7678282767316377 -0.6133038707742428 0.1851974609562828
-0.7248772217732328 -0.6714730836692528 0.1538730361760086
-0.6826406859606355 -0.7199093293726918 0.1254282717466588
-0.6420150185842293 -0.760089926568329 0.1003993000057424
-0.6035462641485287 -0.7934072120927197 0.0789740642971572
-0.5675190823687829 -0.8210901364484742 0.06109892776734752
-0.5340322465560826 -0.8441806591811255 0.04656795360312686
-0.5030533293231548 -0.8635426597843215 0.03509163133153147
-0.4744550011508615 -0.8798853345903204 0.02634862151641671
-0.44804922281704 -0.8937845598993622 0.02002634311473763
-0.4236196770544372 -0.9057015305867433 0.01584634674378527
-0.4004320820710076 -0.9162265584811426 0.01352927130626684
-0.3711497756751436 -0.9284857555327354 0.01272972069981661
0 0 0
0 0 0
-0.3115616916408266 0.9501031402748195 0.01527531151343988
-0.3269073759745122 0.9448981450360593 0.01729343924361131
-0.3450160037754228 0.9383621634565171 0.02098588411388394
-0.3647939617271356 0.9307041724298355 0.02674152032169079
-0.3862953850292368 0.9217114514401638 0.03498393615904357
-0.4098027656939845 0.9110061295537922 0.04614677827302002
-0.4356996857692613 0.898044947110276 0.06067171326299815
-0.4643977191522002 0.8820965966701665 0.07899590235666215
-0.4962875775852335 0.8622019363093706 0.1015207434909336
-0.5316891420296507 0.8371263822503702 0.1285537879184447
-0.5707787952411787 0.8053209622788539 0.1602177100613064
-0.6134819236363336 0.7649165096981709 0.1963228528792076
-0.6593289645420632 0.7137867744574866 0.2362070217530952
-0.707289036092776 0.6497269076747243 0.278562676728939
-0.7556207725589634 0.5707921850005001 0.3212997504196815
-0.801812832727073 0.475809215634269 0.3615269998100941
-0.842710157867119 0.3649901889320903 0.3957546611360268
-0.8749019087949872 0.2404595143232852 0.4203877638065802
-0.8953514635193214 0.1064099279399914 0.432461193645874
-0.9020960140784341 -0.03134147341850833 0.4303957404851471
-0.8947347174131889 -0.166371221935862 0.4144519296216492
-0.8744795895371604 -0.2928888729532694 0.3866543101829877
-0.8437595300277461 -0.4067090591973599 0.3502250657136847
-0.8055847574828164 -0.5056427376113098 0.3088019112834171
-0.76293980738837 -0.5893203950044829 0.2657523703261297
-0.7183771588933187 -0.6586848307099734 0.2237600307761339
-0.6738436349453744 -0.7154186062050857 0.1846915632593349
-0.6306815222440776 -0.7614744069580552 0.1496580938264629
-0.5897233087882344 -0.7987646977705749 0.119169529105968
-0.5514158451228752 -0.8289959049228387 0.0933078526630438
-0.5159365583818667 -0.8536057270013181 0.07187997325837685
-0.4832862955274709 -0.87376205086762 0.05453654755248215
-0.4533576332806777 -0.8903917687261205 0.04085773526411777
-0.4259879874060292 -0.9042174899981603 0.03041324328621955
-0.4010171205034169 -0.9157866625800171 0.02280477370423657
-0.3783738579735029 -0.925483717073644 0.01769500024860716
-0.358220106951382 -0.9335195647648183 0.01481813676019688
-0.3418550575027309 -0.9396496508632687 0.01391593663183077
0 0 0
0 0 0
-0.2690828175115611 0.9629801035915716 0.01624060980397718
-0.2796740782824139 0.9599148326426559 0.01859903248836944
-0.2944243208981539 0.95539763723904 0.02301464798166301
-0.3114141946339656 0.9498061466166436 0.02982420543318012
-0.3302887980250371 0.9430538496302362 0.03948096499285723
-0.3512141614659673 0.9348225551743227 0.05249193388614332
-0.3745568337662326 0.9246023630766531 0.06940928231932204
-0.4007676590190186 0.9116677639753556 0.09081393952797165
-0.4303228247905515 0.8950239294180428 0.1172792915793999
-0.4636702918190038 0.8733372635303026 0.149304670435596
-0.5011537275054839 0.8448660393254847 0.18720661580678
-0.5428955231540233 0.8074179208779205 0.2309561689682587
-0.588628747294196 0.7583799076712112 0.279957342285338
-0.637483925302324 0.6948885412389556 0.3327824518149006
-0.687767979294865 0.6142202148225258 0.3869221295816871
-0.7368219640486505 0.5144528292451884 0.4386703543403741
-0.7810933388226409 0.3953415785286722 0.4833200102761689
-0.8165572796560235 0.2591545623978181 0.5158227620308641
-0.8395045261005435 0.1110232830650679 0.5318890685792996
-0.8474814878294569 -0.04160684493726582 0.5291918350095133
-0.8399726154923456 -0.1904383539670144 0.508113411121259
-0.8184742782783928 -0.3281371506052876 0.4716204683739944
-0.7859434978432749 -0.4496994045624848 0.4243386191875824
-0.7459417491634337 -0.5528916901017297 0.3713242328093456
-0.7018661116992261 -0.6378523700956191 0.3170620053106493
-0.6564874637170353 -0.7062805252726004 0.2649377844004762
-0.6118027262072447 -0.7606216142659896 0.2171455367185395
-0.5690948799353897 -0.8034653730210447 0.1748554030834549
-0.5290844611592624 -0.8371938636727565 0.1384776790262392
-0.4920937482211867 -0.8638269459579624 0.1079201111867583
-0.4581859258345543 -0.8849919194782466 0.0827946847650273
-0.4272692751817611 -0.9019570034220138 0.0625662086403931
-0.3991718883664187 -0.9156885044771212 0.04665154130829507
-0.3737016328308547 -0.9269077704721406 0.03448296184955162
-0.3507171024275539 -0.9361328871849023 0.02554861240222014
-0.3302610536405001 -0.9436898211368738 0.01942055434124157
-0.3129042887164562 -0.9496536525279871 0.01577486428153365
-0.3008224574350798 -0.9535721927335359 0.01434999470645411
0 0 0
0 0 0
-0.2189267837021728 0.975576840656276 0.01791344056679641
-0.2282115530165776 0.9734001404939847 0.02028924730126263
-0.2406141419289106 0.9702937889952361 0.02519519281691617
-0.2548010901081338 0.9664334963643552 0.03290443107962733
-0.2706215540843383 0.9616863706230301 0.04385543321962471
-0.2883081834198787 0.9557421992267683 0.05861092040148606
-0.3082566587344482 0.9481139976271636 0.07783109821473479
-0.3309526674573537 0.9380914067505205 0.1022489339000238
-0.3569342569251396 0.9246659326385362 0.1326304989472774
-0.3867508058135357 0.9064350701950186 0.1697034994427982
-0.4208957305498044 0.8814965232677423 0.2140342577061632
-0.4596927132246043 0.8473585724645694 0.2658308843588496
-0.5031181975279132 0.8009192688130213 0.3246542840627212
-0.5505548921198407 0.7386045295216123 0.389040691616016
-0.6005040430590954 0.6567888616531309 0.4560956977193099
-0.6503469938832492 0.5526105607947498 0.5212200645074327
-0.6963268108066635 0.4251639540168595 0.5782426694360854
-0.7339546269268651 0.2767560255070153 0.6202553570572413
-0.7589238046158002 0.1135644966601076 0.6412002525621885
-0.768295983925032 -0.05500816454639591 0.6377267305969719
-0.7614047204645946 -0.2183875045575018 0.6103849191349497
-0.7399659688481882 -0.3674278065089643 0.5634245042155805
-0.7073642198437367 -0.4962840543140523 0.5033269294588436
-0.6675727060543021 -0.6028532357940733 0.4369378196310672
-0.6242416742031972 -0.6880259478297602 0.3700575999772855
-0.5802122027135869 -0.7544651867393677 0.3068160390536619
-0.5374183142207642 -0.8055065771885458 0.2496812160457895
-0.4970142293555835 -0.8444285045420017 0.199793284509349
-0.459578029368547 -0.8740830713494782 0.1573747733977246
-0.425305431100369 -0.8967774910997373 0.1220877624227305
-0.394160683910348 -0.9142936839257851 0.09329745330255593
-0.3659821126071328 -0.9279668151574764 0.07024730043289375
-0.3405528817006328 -0.9387770830300923 0.0521663027528786
-0.3176527031927308 -0.9474321017595907 0.03832978880394088
-0.2971112189843479 -0.9544295988185966 0.02809029107372753
-0.2789022874189445 -0.9600922473039677 0.02088996743168774
-0.2633966762752963 -0.9645504854266951 0.0162650542652988
-0.2522290165812101 -0.9675679838974218 0.01388235322823519
0 0 0
-0.1280380742785174 0.9915949216367057 0.01859470137818022
-0.1580292186393082 0.9872508315066353 0.01904105421730207
-0.172399079298631 0.9847874657026238 0.02173027500947229
-0.1838474769289156 0.9825790546896873 0.02717547629741528
-0.1953013869385822 0.9800929792185482 0.03570882728928722
-0.2076843045527348 0.9770265304112613 0.04781619511189687
-0.2215087743796109 0.9730469269205776 0.06413689174930391
-0.2372390923768256 0.9676862875944314 0.08544508089952479