# OOMMF: rectangular mesh v1.0
# Segment count: 1
# Begin: Segment
# Begin: Header
# Title: 
# Desc: time = 2.5999999999999997e-09
# Desc: stepsize = 2.9568031530995555e-14
# Desc: step = 16638
# meshunit: m
# valueunit: (none)
# valuemultiplier: 384000.0000000001
# xmin: 0
# ymin: 0
# zmin: 0
# xmax: 9.357999999999999e-08
# ymax: 9.357999999999999e-08
# zmax: 2.3395e-08
# ValueRangeMaxMag: 1
# ValueRangeMinMag: 0
# meshtype: rectangular
# xbase: 1.16975e-09
# ybase: 1.16975e-09
# zbase: 1.16975e-09
# xstepsize: 2.3395e-09
# ystepsize: 2.3395e-09
# zstepsize: 2.3395e-09
# xnodes: 40
# ynodes: 40
# znodes: 10
# End: Header
# Begin: Data Text
0 0 0
0 0 0
0 0 0
0 0 0
0 0 0
0 0 0
0 0 0
0 0 0
0 0 0
0 0 0
0 0 0
0 0 0
0 0 0
0 0 0
0 0 0
0 0 0
-0.9877878864175863 0.1554039229178773 0.01116746114438605
-0.9921770487816329 0.1242508709958059 0.01210061683354586
-0.9965398235594211 0.08215041017972134 0.01263685749942687
-0.9992763499693282 0.03582372678530296 0.01278424777559503
-0.9998508478336862 -0.01167568182558478 0.01272637183826723
-0.9982304541809544 -0.05809085410214119 0.01270484220163304
-0.9948704960838201 -0.1003185044631127 0.0129959102881552
-0.9912157813634908 -0.1315347373361948 0.01377997278161811
0 0 0
0 0 0
0 0 0
0 0 0
0 0 0
0 0 0
0 0 0
0 0 0
0 0 0
0 0 0
0 0 0
0 0 0
0 0 0
0 0 0
0 0 0
0 0 0
0 0 0
0 0 0
0 0 0
0 0 0
0 0 0
0 0 0
0 0 0
0 0 0
0 0 0
0 0 0
0 0 0
0 0 0
-0.9306452616209756 0.3656607684914182 0.01384194381908065
-0.9416719632139918 0.3361995041228371 0.01496018463335884
-0.9553994100697909 0.29492058950732 0.0152909490532678
-0.9691496638060285 0.2460348440943202 0.01468960980232776
-0.9824117767217115 0.1862272913687596 0.01365638707508671
-0.9904651465874434 0.1370509705531751 0.0139937438145071
-0.9960056359230508 0.08812035984768558 0.01440747687254311
-0.9991662023289939 0.03813365845823434 0.01458506825647075
-0.9998178287221068 -0.01235289830952161 0.01455043892004819
-0.997941636876525 -0.06248383731846325 0.01443119753038237
-0.9936414054594384 -0.1116735539091314 0.0143448497341647
-0.9868242934932628 -0.1611727368028422 0.01418318310548614
-0.9751253893987105 -0.2212681271330262 0.01307252328570411
-0.9625791799158081 -0.2707592321401928 0.01143506027368864
-0.9497918975988991 -0.3127057754724549 0.01050948341510062
-0.9394058077461994 -0.3426386164923962 0.01074741182269672
0 0 0
0 0 0
0 0 0
0 0 0
0 0 0
0 0 0
0 0 0
0 0 0
0 0 0
0 0 0
0 0 0
0 0 0
0 0 0
0 0 0
0 0 0
0 0 0
0 0 0
0 0 0
0 0 0
0 0 0
0 0 0
0 0 0
-0.8822093722221875 0.4706755592170098 0.01308210682911264
-0.8970397403000477 0.4417264248186015 0.01405239977364747
-0.9185184051895826 0.395102355431074 0.01476712770996421
-0.9356493191043268 0.3525698099942153 0.01596498481839625
-0.9515836790536978 0.306929425561205 0.01681753499467248
-0.9662366643148059 0.2570825573397266 0.01718334209233664
-0.9790679577765303 0.2027897250887923 0.01738566805462495
-0.9886308975080885 0.1492946237097848 0.01789032765782664
-0.9952440132186434 0.09566738031081565 0.01836046014983711
-0.9989638829994056 0.0415449551509127 0.01857894411041067
-0.9997459235546172 -0.01287760708116659 0.01850015058825238
-0.997572315196196 -0.06722824540507963 0.0181614694850139
-0.992460513484161 -0.1212955977126434 0.01759281530305499
-0.9843528508353329 -0.1754142170644233 0.0167127946205197
-0.9729576454232226 -0.230474982645215 0.01532000610919314
-0.9595368241312707 -0.2812498645464361 0.01369659916494685
-0.944636442001144 -0.3278819199888442 0.0124675173088871
-0.928414532168691 -0.3713556992133121 0.01189122028144533
-0.908031245810123 -0.41874298357077 0.01155726363656632
-0.8938370276181509 -0.4482405263270708 0.0116532663566354
0 0 0
0 0 0
0 0 0
0 0 0
0 0 0
0 0 0
0 0 0
0 0 0
0 0 0
0 0 0
0 0 0
0 0 0
0 0 0
0 0 0
0 0 0
0 0 0
0 0 0
0 0 0
0 0 0
-0.8452929869994661 0.5341286301592906 0.01365183407748725
-0.8663064031582649 0.4993091819995876 0.01426732693576026
-0.8868207763869228 0.46184833996735 0.01565316063603657
-0.9081360575651206 0.4183200982057657 0.01723938476854218
-0.9277693081817295 0.3726700409030906 0.01900398403711331
-0.9457803224702704 0.3241511671956235 0.0206301341184544
-0.9619366296471608 0.2723872379756594 0.0219798346456896
-0.9757769216651302 0.2175432493842838 0.02311566120726011
-0.9866294341770954 0.1611855555342429 0.02411589315164256
-0.9942920180269652 0.1037601272483746 0.02484389022004426
-0.9986440364879592 0.04557297465471017 0.02516331393430267
-0.9996026748139347 -0.01299068880660109 0.02501468586963193
-0.9971422166994259 -0.0714986616310908 0.02439961189685208
-0.9912981635455328 -0.129550067598661 0.0233394716400274
-0.9821535691136771 -0.1868079407555166 0.02184399111765266
-0.9698759945103103 -0.2427808357334675 0.01995046548817802
-0.9550663479113275 -0.2958520633795793 0.01788372671911454
-0.9381795737048497 -0.3457796156838948 0.01598577056271047
-0.9194893033032625 -0.3928493300677787 0.01445077770147797
-0.8990227166677973 -0.4377008373948527 0.01327146785767774
-0.8792039786995506 -0.4762796301063923 0.01257289881442114
-0.859012714295266 -0.5118060204865347 0.01231885030414123
0 0 0
0 0 0
0 0 0
0 0 0
0 0 0
0 0 0
0 0 0
0 0 0
0 0 0
0 0 0
0 0 0
0 0 0
0 0 0
0 0 0
0 0 0
0 0 0
-0.7723607214101241 0.6350076713718353 0.01497241870076828
-0.7926718501225837 0.6094488430709387 0.01560274664069783
-0.8235538560669199 0.5670215173018188 0.01567306843121004
-0.849196549767772 0.5278036741857727 0.01698532833094223
-0.8731635926230065 0.4870528678063691 0.01910090257750396
-0.89639653762536 0.4427251932886435 0.0216252297282415
-0.9182695988468756 0.3952073775509604 0.02433254123370453
-0.9384292939072149 0.3444159249838529 0.02698390176238908
-0.9564762056452526 0.2903248188469929 0.02940693108640375
-0.9719232807414702 0.2331789522650964 0.03150734157761315
-0.9842402637972724 0.1736915078286442 0.03320185579883725
-0.993060247257835 0.112475534712887 0.03435985167687757
-0.9981345625362634 0.05011991789564118 0.03486242820968809
-0.9993181682205858 -0.01276156639865787 0.03464593897276558
-0.9965732424093833 -0.07553523495380317 0.03370757769584815
-0.9899723174625142 -0.1375678191114533 0.03209214550036917
-0.9796995769609618 -0.19823160123601 0.02988262327707398
-0.9660662241193236 -0.2568567059710437 0.02721549583485388
-0.9495541431894163 -0.3126593662696112 0.02431151652402228
-0.9306385039938322 -0.365311809870001 0.02143026956492932
-0.9097423717646235 -0.4147488250311351 0.01876776895024421
-0.8872713510697585 -0.4609552778713394 0.01642502278235329
-0.863906286088071 -0.5034452318655128 0.01445086050709004
-0.8388767368938655 -0.544172826269399 0.01271831153392012
-0.8088895328190652 -0.5878614700636778 0.01079887541947093
-0.7890114937867907 -0.6142976233322458 0.009964569267703888
0 0 0
0 0 0
0 0 0
0 0 0
0 0 0
0 0 0
0 0 0
0 0 0
0 0 0
0 0 0
0 0 0
0 0 0
0 0 0
-0.7256443144325101 0.6879250517551668 0.01412275112798277
-0.7506402047452205 0.660536590463183 0.01518866943895693
-0.7759805954215592 0.6305351759922456 0.01671847378290205
-0.8039160230373429 0.5944539510427157 0.01853450818139964
-0.8309903786823303 0.5558855021268143 0.02112579140804083
-0.857250812620148 0.5143191264546125 0.02443113638494202
-0.8827083908956327 0.4690734796511032 0.02821289298260944
-0.906936439157028 0.4200332593606017 0.0322235373613576
-0.9294523086757241 0.3671611004488323 0.03620955971243076
-0.9497236070776574 0.3105320077692169 0.03993672883727056
-0.9671727252489195 0.2504212421122113 0.04319862305160418
-0.9812215674396978 0.1873667988803675 0.04580303776504163
-0.9913851414717385 0.122036263586858 0.04756733794127129
-0.9973046526359182 0.05518970873300705 0.04834796666578256
-0.9987676958870668 -0.01234645714770625 0.0480692692719453
-0.9957215810854627 -0.07971434934415325 0.04673494912058741
-0.9882773049520909 -0.1460629920510658 0.04442489020494807
-0.9767034902764874 -0.2105841627260752 0.04128683192840829
-0.9614118755151807 -0.2725412264735225 0.0375297947062037
-0.9429297548449901 -0.3313111148561772 0.03341291068918036
-0.9218171089044068 -0.3865231163194222 0.0292078462376552
-0.8986226310223665 -0.4380011576935205 0.02514662747914254
-0.8738752373529152 -0.4856792662776767 0.02139438826802269
-0.8480731464815191 -0.5295717030148375 0.01804853409282528
-0.8213196592811656 -0.5702674786986554 0.01513340731455775
-0.7936824428049376 -0.6081995416592376 0.01270816700706441
-0.7685581115423837 -0.6396808783800263 0.011260684586741
-0.7440269542917607 -0.668060536232204 0.01090922620837884
0 0 0
0 0 0
0 0 0
0 0 0
0 0 0
0 0 0
0 0 0
0 0 0
0 0 0
0 0 0
0 0 0
-0.6725354102935226 0.739937831584997 0.01371595022647116
-0.6993123288684727 0.7146642659661235 0.01473952657496578
-0.7260234684891074 0.6874676691103676 0.01667714397022294
-0.7533887945266926 0.6572899153149726 0.01937244194344564
-0.7818375485555168 0.6230666547402274 0.02275942485041438
-0.8104247423563037 0.5852232554361306 0.02693470388653953
-0.838789017263428 0.5435246825269276 0.03184185927759671
-0.866606202531871 0.497597229970843 0.03729190875555801
-0.8933824238004745 0.4472320715733875 0.04302695667328861
-0.9185219340844684 0.3923531469336554 0.04874899688182149
-0.9413565384643786 0.3330412506607058 0.05414233878135877
-0.9611737377358861 0.2695865961146603 0.05889068756718906
-0.9772680443290707 0.2025264212416586 0.0626914526253696
-0.9890156678033449 0.1326154554868578 0.06527748314324348
-0.9959365616132256 0.06078477883460703 0.06644979987970583
-0.9977413814515337 -0.0119138522427649 0.0661074569464149
-0.9943595077292385 -0.08437667437830544 0.06426310146050551
-0.9859446827942127 -0.1555216863443153 0.06104168695603657
-0.9728576277352821 -0.2243591847887275 0.05666561883731917
-0.9556280727869619 -0.2900514720681877 0.05143082784238965
-0.9348999047341577 -0.35196016898113 0.0456750213884625
-0.9113620317791655 -0.4096830196293325 0.03973751953434425
-0.8856970750365705 -0.4630228329593447 0.03391972036980172
-0.8585494823289658 -0.5119401618531452 0.02846150161955372
-0.8304913868541726 -0.5565339223351926 0.02353825930774024
-0.8019515304971702 -0.5970779527522032 0.01927851318134599
-0.773401813172199 -0.6337186282295407 0.01582199787711796
-0.74588180106595 -0.6659439844526311 0.01337716001128476
-0.7191645579437421 -0.6947361620575985 0.01200015529313662
-0.6927797706064808 -0.7210566943157599 0.01155132117377789
0 0 0
0 0 0
0 0 0
0 0 0
0 0 0
0 0 0
0 0 0
0 0 0
0 0 0
-0.6185800788900218 0.7856144843219536 0.01298337490658627
-0.6440887050356687 0.764818538986917 0.01422471326221461
-0.6705226354360445 0.7417092024575305 0.01633567744890466
-0.6980559716547032 0.715779239438176 0.01944070025780631
-0.7266929566529798 0.6865588945291313 0.02354211319926193
-0.7563659591349693 0.6535221710698638 0.02862355292358082
-0.7866557837521511 0.6164174221508762 0.03467332632091439
-0.8171816878604019 0.5748772758126304 0.04159575434912182
-0.8475068025954036 0.5285004006920395 0.04918888108981998
-0.8770550163366548 0.4769774362755566 0.05715788311953697
-0.905117313289141 0.4201432160635776 0.06513314962444286
-0.9308766973522986 0.3580285886133475 0.07269184316008706
-0.9534487866748512 0.2909183373924099 0.07938470984446118
-0.9719465594407389 0.2193941711873357 0.0847707687845945
-0.9855666948757482 0.1443359115043604 0.08846148654583136
-0.993678069715377 0.06688259737192416 0.09016990593045263
-0.9958960278102921 -0.01164468767111347 0.08975245423231301
-0.9921279823715951 -0.0898483225705726 0.08723156267384764
-0.9825813167566758 -0.1663707801843528 0.0827932331870543
-0.96773262499681 -0.2400027166440758 0.07676107425151363
-0.948265644845264 -0.309765390195249 0.06955335968434619
-0.9249911684122709 -0.37495717396189 0.06163161570017759
-0.898764612154958 -0.4351612988478812 0.05344919010585904
-0.8704198420808787 -0.490211478204983 0.04540930684323223
-0.84072316720125 -0.540141316191098 0.03784064844115439
-0.8103409999882799 -0.585138354518053 0.03099306067330399
-0.7798251593719274 -0.6254959180402994 0.02505149347784209
-0.7496849908318732 -0.6614876144345159 0.02016309676481063
-0.7204794431869984 -0.6932811581416739 0.01645015837892236
-0.6924558985220012 -0.7213250595262762 0.01396377819579321
-0.6658144738494074 -0.7460093610438223 0.01269329144171127
-0.6406071534662744 -0.76776488586345 0.01263150675571909
0 0 0
0 0 0
0 0 0
0 0 0
0 0 0
0 0 0
0 0 0
0 0 0
-0.5920199692468966 0.8058026453896001 0.01394462964819899
-0.6125261244528354 0.7902909466120344 0.01587345475451006
-0.6382821010303645 0.7695668438703697 0.01904815790728282
-0.6663232448508332 0.7452929452841768 0.02348955259456899
-0.6959666091360753 0.7174791156835391 0.02922665779043689
-0.7269558629634394 0.6857262722674187 0.03625814150381085
-0.7589968194851101 0.6495690655620436 0.04454051050830309
-0.791732976428885 0.6084805609087479 0.05394720596317745
-0.8246892025024001 0.5619259582748414 0.06424123825749253
-0.8572222932808529 0.509445728259043 0.07506656952950611
-0.8885105843424644 0.4507338537708736 0.08595309521051991
-0.917572669393428 0.3857199354079088 0.09633549611195598
-0.9433158916132104 0.3146523259890276 0.1055890258486538
-0.9646192439722457 0.2381630626679664 0.1130843478958365
-0.9804463893907448 0.1572886520705501 0.1182588578520894
-0.9899702106124854 0.07343030945393873 0.1206937104963204
-0.9926827158788363 -0.01174972886584613 0.1201789060817073
-0.9884640177895587 -0.09648142718614661 0.116748532082619
-0.9775932056293869 -0.1790596408808385 0.1106759653894354
-0.9606996425262522 -0.2580003666786908 0.1024305015295339
-0.9386691683456323 -0.3321506250902874 0.09260753019841145
-0.9125295937737249 -0.4007373371557008 0.08184941720328986
-0.8833407852352093 -0.4633574895531178 0.07077354035990921
-0.8521082331596859 -0.5199242689605192 0.05991922502291949
-0.8197261488196829 -0.5705935999023203 0.0497190576314688
-0.7869478036890521 -0.6156893943115979 0.04049350566688752
-0.7543844680318914 -0.6556296296649612 0.03246325765577814
-0.7225448132870553 -0.6908436033311138 0.02577030322786021
-0.6918873536237481 -0.7217145197743386 0.02049492235705158
-0.6628494270508379 -0.7485672945673143 0.01666260971596559
-0.6363046997913651 -0.7713057701166862 0.01427368236040747
-0.6153922122748485 -0.7881082654500927 0.01333367918892414
0 0 0
0 0 0
0 0 0
0 0 0
0 0 0
0 0 0
0 0 0
-0.5154244381381076 0.8567909739793294 0.01571227155977053
-0.5480757817949427 0.8362742107639325 0.01607425957932502
-0.5744546199620288 0.8183261933514854 0.01855076492083445
-0.6015832534538437 0.7984840179570281 0.02282240633868775
-0.6303526407114631 0.7757754943302616 0.02877378572107704
-0.660860160405806 0.7496256581434768 0.03640358555651976
-0.693048274188934 0.7194402143826958 0.04571506942705289
-0.7267430282313015 0.6845685253051852 0.05666131906936662
-0.7616419533639822 0.6443033048870342 0.06909982769545937
-0.7972713553824152 0.597921349856717 0.08275533379913948
-0.8329413084216535 0.5447586044912062 0.09719485355519927
-0.8677223039240172 0.4843083361932041 0.1118187764490605
-0.9004543292573007 0.4163383302995885 0.1258745234157197
-0.9297991282126237 0.341014999740948 0.1385003650779505
-0.9543439049790559 0.2590078854012244 0.148803986268219
-0.9727526268539809 0.1715380499948907 0.155971229246389
-0.9839417953841634 0.08033831908556657 0.1593872572782843
-0.9872413037382454 -0.01248680198326904 0.158740946102256
-0.9824970216448715 -0.1046820049462999 0.15408205703254
-0.9700856623096995 -0.194093913852444 0.1458127579692219
-0.9508396919991771 -0.2788948746086611 0.1346162287242093
-0.9259077120731063 -0.3577295338931069 0.1213445066913431
-0.8965908513914478 -0.4297649778784143 0.106896721139256
-0.8641936392439229 -0.4946556166765355 0.09211500844433509
-0.8299135756429437 -0.5524526974262943 0.07771405323334114
-0.7947760134353794 -0.6034926215408988 0.06424752301418542
-0.7596094469709331 -0.6482888983506899 0.05210558845039014
-0.7250535713334363 -0.6874389622976299 0.04153302073996915
-0.6915920047422937 -0.7215497653013632 0.03265631899161826
-0.6595883313054174 -0.751194066392482 0.02550897533146835
-0.6292982533373779 -0.7769052812047459 0.02004725374457185
-0.600837968849986 -0.7992077069456375 0.01614857104881358
-0.5735826876044714 -0.8190356392038969 0.0135470363657417
-0.5410235554474767 -0.8409253999333782 0.01174666752139438
0 0 0
0 0 0
0 0 0
0 0 0
0 0 0
-0.4513750127638059 0.892204839628074 0.01520269702113345
-0.4796567275723912 0.8773085558220719 0.01609725367678985
-0.5071198057447166 0.8616871237595974 0.01802230197151945
-0.5335832729748317 0.8454678193868088 0.02174987776471238
-0.5609263920303816 0.827410651298392 0.02744443188970384
-0.5899541167910334 0.8066704653248148 0.03516959558991082
-0.6209629052224395 0.7825475122319894 0.04499401557131123
-0.6540391944608959 0.7543126427569103 0.05696638557981008
-0.6891209768135521 0.7211529040241123 0.0710687577851512
-0.725982321099519 0.6821670228067257 0.08716548884714763
-0.7641844492943013 0.6364016536922412 0.1049526685441844
-0.803018273974605 0.5829296120668228 0.1239141599595022
-0.8414607603506041 0.5209708405592097 0.1432940057267331
-0.8781664289812731 0.4500528484817035 0.1620992183318075
-0.9115164074695549 0.3701937469828046 0.1791491797598498
-0.9397430046191436 0.2820697788857607 0.1931831387795573
-0.9611302258884667 0.1871110370325816 0.2030225325036018
-0.9742609931575954 0.08746867856845837 0.2077612752200531
-0.978251955581893 -0.01417425187420848 0.206935260369053
-0.9729057719690831 -0.1149227524495025 0.2006168483419876
-0.9587314337180449 -0.2120411132587783 0.189400644901012
-0.9368293296121378 -0.3032743791270366 0.1742855649317585
-0.9086844680451683 -0.3870427515274697 0.1564942363907184
-0.875933974616669 -0.462485179898478 0.1372848516279791
-0.8401669754453419 -0.5293794118888792 0.1178002191815014
-0.8027883552678118 -0.5879921488134062 0.09897519679290616
-0.7649503803335174 -0.6389118901063877 0.08150160923742408
-0.7275392138828484 -0.6828998859814717 0.06583644878954914
-0.6911981312699715 -0.7207750058035203 0.05223537439162684
-0.6563691041662435 -0.7533361414268996 0.04079530752467201
-0.6233321591542164 -0.7813226818895959 0.03149422374010181
-0.5922182661696914 -0.8054134851322428 0.02422071803432796
-0.5629526854649789 -0.8262755007857843 0.01879017639537908
-0.5349709059259288 -0.8447381086520721 0.01495518651539503
-0.5066546195714406 -0.8620587403487334 0.01248297461637894
-0.4782885129732992 -0.8781277151243914 0.011481040379914
0 0 0
0 0 0
0 0 0
0 0 0
-0.421637064169823 0.9066373925835922 0.01519290911830763
-0.4408076966667 0.8974414320157158 0.01695436996703913
-0.4643663205804122 0.8854121547413246 0.02022959581735108
-0.4894578416049519 0.8716567614593125 0.02540691822485125
-0.5161448336410249 0.8558742335083445 0.03276899635603341
-0.5448284779455714 0.837468520624947 0.04252536398167227
-0.5758139280602069 0.8157385874685308 0.05485323296507018
-0.6092838910072692 0.7898665056113446 0.06988593186303808
-0.6452881617670743 0.7588919376665363 0.08767106266037472
-0.6837026621491663 0.7217080578032269 0.1081117434511007
-0.724161625641478 0.6770935519954996 0.1308979059970359
-0.7659762165001351 0.6237948409689829 0.1554362639045951
-0.8080601853118689 0.5606713177134284 0.1807938339856617
-0.8488914393866483 0.4869082129941646 0.2056786723384147
-0.8865460632629041 0.4022802932656065 0.2284877313187386
-0.9188391615694916 0.3074151382768335 0.2474480307549614
-0.9435842967325357 0.2039690276046633 0.2608549611139742
-0.9589372314155252 0.09461739674481781 0.2673704068111508
-0.9637369224507797 -0.01719869409936084 0.2662993601689195
-0.9577311792487877 -0.1277382120909447 0.2577478175786066
-0.9416046267223026 -0.2335090029637345 0.2425989951958481
-0.9168040120466733 -0.3317308418912053 0.2223174577789037
-0.8852343176145512 -0.4205895026280127 0.198657175044397
-0.848932421539608 -0.4992555694650674 0.173371335626764
-0.8098045441942405 -0.5677268650018316 0.1479959693962969
-0.769465941002068 -0.6265876976642759 0.1237336767965101
-0.7291782614227229 -0.6767657142122042 0.1014259884614392
-0.6898575041962648 -0.7193333483072977 0.08158528002716957
-0.6521215590311868 -0.7553693708293422 0.06445607697973341
-0.6163515602505776 -0.7858768595371854 0.05008308916838838
-0.5827475484062449 -0.8117467941369231 0.03837234726907367
-0.5513648133360984 -0.8337551814184505 0.02914000811144599
-0.5221259138471365 -0.8525807149353721 0.02215072480939907
-0.4948508863947959 -0.8688084967679841 0.01715797709637018
-0.4696840906369201 -0.882723972610061 0.01397294464603272
-0.4496302177324693 -0.893126660000138 0.01254737019655989
0 0 0
0 0 0
0 0 0
-0.3448375488592261 0.9385497842035282 0.01453848232350403
-0.3738372699433481 0.9273619690724252 0.01566760732906892
-0.3956020819677506 0.918239326039019 0.01831755601024911
-0.4178249768131748 0.9082408301419667 0.02282286603607502
-0.4414643134091394 0.8967940110352041 0.02949172354384342
-0.4669408267009167 0.8834431040766277 0.03865936134129264
-0.4946542454767123 0.8676128523392225 0.05064697313425988
-0.5249600975911619 0.848583322270139 0.06575135817646914
-0.5581411276822155 0.8254606657418442 0.08422096474545766
-0.5943723355739459 0.7971458027359689 0.1062077957816647
-0.6336613754191889 0.7623185842686415 0.1316952443352268
-0.6757600035611655 0.7194572672157535 0.1604046702482597
-0.7200528887522755 0.6669177696350108 0.1916886171491802
-0.7654423700767452 0.6030997814243941 0.2244295696585956
-0.8102646472809891 0.5267189853930824 0.2569792049818342
-0.8522906232256666 0.4371763365113371 0.2871890394080705
-0.8888708594704038 0.3349610677082133 0.3125854735974123
-0.917258960071707 0.2219575800374653 0.3307126136573595
-0.9350798608330195 0.1014899609899441 0.3395959977425527
-0.9408188783006779 -0.02201227720758189 0.3381941718675679
-0.9341537378413498 -0.1436932552294479 0.3266635003770679
-0.9159934501643541 -0.2590850215071432 0.3063183815683369
-0.8882165064206554 -0.3647742292752763 0.2793048502595565
-0.8532309150010154 -0.4587253762814561 0.2481290689177024
-0.8135255017446855 -0.5402402318700756 0.2152132660409756
-0.771336527695511 -0.6096718782753925 0.1825928856302642
-0.7284710350857971 -0.6680511647843494 0.1517813963280776
-0.6862641813530292 -0.7167446757573336 0.1237681023744423
-0.6456216645020331 -0.7572008452871977 0.09909362351825227
-0.6071008113161244 -0.7907917687379195 0.07795500879132507
-0.5709977368090251 -0.8187333824951074 0.06030947642859019
-0.5374220465510429 -0.8420599995190644 0.0459619526439083
-0.5063513297154024 -0.8616315338880852 0.03463279811261009
-0.4776676357634647 -0.8781555433996425 0.02600906266323342
-0.4511918014228671 -0.8922076676010934 0.01978474671569251
-0.4267158875993096 -0.9042496903606916 0.01568594125088122
-0.4035155957954062 -0.9148741070826151 0.01343622490379582
-0.3742845831330596 -0.9272269396341025 0.01269855289736937
0 0 0
0 0 0
-0.3146222376754912 0.9491082665063434 0.01436474884534346
-0.3299733961452941 0.9438481934646062 0.01637514976845024
-0.3481223878322824 0.9372348379633638 0.02004149689360252
-0.3679726706409326 0.9294801738037504 0.02574335190159327
-0.3895715561542803 0.9203722188345375 0.03389662863947327
-0.4131943339613049 0.9095339299224346 0.04492741592974622
-0.4392167731758191 0.8964238888165308 0.05926919705942022
-0.4680417848127837 0.8803146325537494 0.07735008326446959
-0.500050346776133 0.8602540911421557 0.09956178665659039
-0.5355514967725267 0.8350195017832267 0.126202321477845
-0.574709968609126 0.8030802515719228 0.1573866624478514
-0.6174397752215367 0.7625937108592624 0.1929221504448803
-0.663262360201839 0.711469038213679 0.2321526420327531
-0.7111436091338094 0.6475439035643794 0.2737912711259163
-0.7593488167194203 0.5689171664406933 0.3157889046117801
-0.8053866685408273 0.4744483168135624 0.355318320396633
-0.846135528149523 0.3643553854904685 0.3889727767687849
-0.878225249961417 0.2407262980549074 0.4132447939841293
-0.8986545844649512 0.1076706186378101 0.4252375520838633
-0.9054764856373246 -0.0291098418669333 0.4233969190539311
-0.8982783990530242 -0.1633076886365431 0.4079540619076184
-0.8782372378030437 -0.2892159823851405 0.3808588579370016
-0.84773701415354 -0.4026817997144441 0.3452380671547915
-0.8097482128743412 -0.5015002425150199 0.3046396863578123
-0.7672299459629172 -0.5852547802565042 0.2623643501023905
-0.7227251983994895 -0.6548300242826538 0.221056388499398
-0.6781838167817492 -0.7118539186068708 0.1825669992615876
-0.6349585722679121 -0.7582355604180281 0.148008264705228
-0.5938955338840943 -0.7958565159971116 0.117900384975899
-0.555455330669284 -0.8264035127206802 0.09233964367483774
-0.5198279329269921 -0.8513030538624889 0.07114794890403024
-0.4870250333470232 -0.8717176801692598 0.0539898413931203
-0.4569485180198182 -0.8885725886942858 0.04045746532627396
-0.4294439349176202 -0.9025907552305129 0.03013030592082726
-0.4043584226592085 -0.9143209024031225 0.02261754746421123
-0.3816277942383107 -0.9241487595622364 0.01758683781640744
-0.3614209503957194 -0.9322856955838169 0.01477424870688563
-0.3450411581886628 -0.9384843621069675 0.01391765916034468
0 0 0
0 0 0
-0.2722419953623135 0.9621057970837915 0.01538607093795269
-0.2828770772718742 0.958992121866425 0.01773892195860111
-0.2977087346924311 0.9544002762583073 0.02212740305362672
-0.3148142465135667 0.9487138250477304 0.02888024160908504
-0.3338342187659085 0.9418475561441931 0.03844340471610262
-0.3549294605879872 0.9334836620067646 0.05131598944929812
-0.3784606107301404 0.9231132015739143 0.06804104059849732
-0.4048716256551006 0.9100133577829508 0.08918887484431395
-0.4346304705133889 0.8931950845824876 0.1153208349735317
-0.4681751749130311 0.8713354701158058 0.1469234634536626
-0.5058376957102556 0.8427106369880853 0.1843014050561578
-0.547727419521955 0.8051557360868073 0.2274179292631321
-0.5935647351426904 0.7560966551546023 0.2756787138300841
-0.6424709015367851 0.6927195359935444 0.3276748161384982
-0.6927516162990103 0.6123551418155156 0.3809414369784521
-0.7417595766696791 0.5131266296065942 0.4318492704722269
-0.7859688163211126 0.3948035655744418 0.4757973984591504
-0.8213912373781508 0.2596148835207453 0.5078548487637972
-0.8443513606016699 0.1125904277124695 0.5238264745482333
-0.8524099820474712 -0.03896982565626023 0.5214197687028658
-0.8450373895054274 -0.1869133746877082 0.5009742515346516
-0.8236927644436223 -0.3240037335016033 0.4653512764356024
-0.791289541305743 -0.4452644620216972 0.4190470387446672
-0.751355675366134 -0.5484281044076049 0.367003083625984
-0.7072726770869625 -0.633564839338287 0.3136255005583743
-0.66181261813758 -0.702298769812866 0.2622603599349627
-0.6169844706734101 -0.7570109761160692 0.215091945427176
-0.5740879027123518 -0.8002439992056065 0.1732992258919523
-0.5338603483894307 -0.8343494788048512 0.1373101439646321
-0.4966389303490992 -0.8613300868009734 0.1070525778910978
-0.4624988933943195 -0.8828051292389199 0.08215763749331491
-0.4313580062726133 -0.9000405670443729 0.0621067476121483
-0.4030518265471456 -0.9140036747662565 0.04633041798632894
-0.3773943321882972 -0.9254182672465635 0.03427168916928967
-0.3542494086507764 -0.9348052415078436 0.0254266969942383
-0.3336647134662056 -0.9424927370276397 0.01937265179737631
-0.3162157497439628 -0.9485559380406762 0.01578708401306858
-0.3040828442382478 -0.9525367038915534 0.01440317948898712
0 0 0
0 0 0
-0.2222016028036358 0.9748502979621523 0.01712729618466835
-0.2315541849991036 0.9726266354565536 0.01949583057642155
-0.2440710482027427 0.9694509976801247 0.02437389025627094
-0.2584130959434224 0.9655034853563177 0.03202642049522963
-0.2744254709804286 0.9606516506348975 0.04288434457486805
-0.2923371734416356 0.9545849788475037 0.05750213198539162
-0.3125401211721942 0.9468166604294949 0.07653028283501968
-0.3355156680472078 0.9366379978901472 0.1006901057858792
-0.3617963567243801 0.9230449814399548 0.1307339225276974
-0.3919242671043471 0.904644302649201 0.1673739960061309
-0.426383095183461 0.8795501646469422 0.2111609907423904
-0.4654841244013824 0.8452977515989699 0.262290375484889
-0.50918920353956 0.7988252732159024 0.3203194309908269
-0.5568662122590456 0.7366126612573844 0.3837991778516162
-0.6070051329938116 0.6550971527423878 0.4498805274603259
-0.6569848087857515 0.5514732684707925 0.5140507710206162
-0.7030584917651945 0.4248582580374279 0.5702667952232986
-0.740758438016745 0.2775179434618684 0.6117685244957336
-0.7657996165910941 0.1155101965740045 0.6326202191808032
-0.775250779961976 -0.05193788615236475 0.6295146417283486
-0.7684298922903886 -0.2144231715337757 0.6029412941107766
-0.7470214146727869 -0.3629054275273457 0.5570086684168045
-0.7143793288748942 -0.4915540094384905 0.4980329610389251
-0.6744613846060438 -0.5982079474378906 0.4327228816430251
-0.6309208442464769 -0.6836670717352322 0.3667945246596312
-0.586615145414097 -0.7505050311962999 0.3043433411787388
-0.5435002790042418 -0.8019874692790455 0.2478377409550497
-0.5027519728190285 -0.8413461598393345 0.198436622502448
-0.4649662194635 -0.8714064611125983 0.1563879608187192
-0.4303521965269536 -0.8944630046996623 0.1213792410920316
-0.3988836519817624 -0.9122940120569714 0.09279799430314332
-0.3704053943982499 -0.9262359292867745 0.06990598757575479
-0.34470510402112 -0.9372726052524962 0.05194665249066908
-0.3215658949965032 -0.9461160880673046 0.03820632245215084
-0.3008204094284356 -0.9532683392011091 0.02804558339679617
-0.2824456279757456 -0.9590553486954276 0.02091184774422004
-0.266816181294107 -0.963608854221594 0.01634323913353809
-0.2555732422198374 -0.966688297488794 0.01400190556517526
0 0 0
-0.1314593309895864 0.9911597423535102 0.0179111538850296
-0.1614338798874543 0.9867132088775525 0.01833428076161393
-0.1758779888832646 0.9841877244620191 0.02101085540024603
-0.18746401600467 0.981915858963866 0.02642893525386703
-0.1991065555842297 0.9793558649257946 0.03490944512352111
-0.2117237404907959 0.9762021440672648 0.04693007171378233
-0.2258255009899215 0.9721206050053187 0.06312188548152857
-0.2418746621841805 0.9666429957508267 0.08424943061620779
-0.2603738226551642 0.959084123148901 0.1111895552632537