# OOMMF: rectangular mesh v1.0
# Segment count: 1
# Begin: Segment
# Begin: Header
# Title: 
# Desc: time = 1.5399999999999999e-09
# Desc: stepsize = 2.9858589933381214e-14
# Desc: step = 9854
# meshunit: m
# valueunit: (none)
# valuemultiplier: 384000.0000000001
# xmin: 0
# ymin: 0
# zmin: 0
# xmax: 9.357999999999999e-08
# ymax: 9.357999999999999e-08
# zmax: 2.3395e-08
# ValueRangeMaxMag: 1
# ValueRangeMinMag: 0
# meshtype: rectangular
# xbase: 1.16975e-09
# ybase: 1.16975e-09
# zbase: 1.16975e-09
# xstepsize: 2.3395e-09
# ystepsize: 2.3395e-09
# zstepsize: 2.3395e-09
# xnodes: 40
# ynodes: 40
# znodes: 10
# End: Header
# Begin: Data Text
0 0 0
0 0 0
0 0 0
0 0 0
0 0 0
0 0 0
0 0 0
0 0 0
0 0 0
0 0 0
0 0 0
0 0 0
0 0 0
0 0 0
0 0 0
0 0 0
-0.9864855907711645 0.1620057332746697 0.02450146091567687
-0.9912113765180999 0.1298358241416858 0.02535085463139783
-0.995932495331089 0.0863322835307033 0.02579150177798784
-0.9989275698237976 0.03843175287834759 0.02582074004785843
-0.9996146327602378 -0.01069558323037395 0.0256162150009812
-0.9979521568557438 -0.05869446160765544 0.02542543615271202
-0.9944214979555827 -0.1023386263904055 0.02554779740602904
-0.9905564418741613 -0.1345757702197574 0.02621635999447051
0 0 0
0 0 0
0 0 0
0 0 0
0 0 0
0 0 0
0 0 0
0 0 0
0 0 0
0 0 0
0 0 0
0 0 0
0 0 0
0 0 0
0 0 0
0 0 0
0 0 0
0 0 0
0 0 0
0 0 0
0 0 0
0 0 0
0 0 0
0 0 0
0 0 0
0 0 0
0 0 0
0 0 0
-0.9252206929900445 0.3784653266842316 0.0270308298211322
-0.936979160048647 0.3482465976396655 0.02818440822384023
-0.9516646077852061 0.3058047367114397 0.02859960303703624
-0.9664218739935583 0.2554207798540412 0.02808890680556163
-0.980674870290552 0.1937569821998867 0.02711144830880648
-0.9893385290667344 0.1430239343596074 0.02744866307069004
-0.9953265781650072 0.0924725109066715 0.02781793531074168
-0.9987785123981801 0.04077802968536198 0.02790404032855211
-0.9995498961001155 -0.01145469000421295 0.02772715786291773
-0.9976173682630685 -0.06330809028824064 0.02741664173316116
-0.9930943549482388 -0.1141463786163539 0.02709624362735129
-0.9858918496804742 -0.1652476756852889 0.02665457585898147
-0.9734987769790138 -0.227304986984306 0.02515102607107908
-0.960191404454958 -0.278385508532342 0.02310790881935828
-0.9466324142161752 -0.3215761142729294 0.02181456129238139
-0.935627438487625 -0.352315085704258 0.02180313588193688
0 0 0
0 0 0
0 0 0
0 0 0
0 0 0
0 0 0
0 0 0
0 0 0
0 0 0
0 0 0
0 0 0
0 0 0
0 0 0
0 0 0
0 0 0
0 0 0
0 0 0
0 0 0
0 0 0
0 0 0
0 0 0
0 0 0
-0.8737474130984942 0.4856895960041002 0.02590510445959066
-0.889487180331506 0.45616411060616 0.02696034533898134
-0.9123002510944278 0.4085715432927012 0.0278845093997309
-0.9305168600782971 0.3650772767182209 0.02927379603046443
-0.947524607612348 0.3182408085333724 0.03032994812211973
-0.9632189063527352 0.2669356809674608 0.03089790722812696
-0.9769942576267138 0.2109603726177908 0.03127206020378011
-0.9872843694240985 0.1557332970707117 0.03188595418589363
-0.9944310577985872 0.1002884366727073 0.03238982487335558
-0.9984889208228432 0.04426957446101983 0.03255886624367427
-0.9994037476532664 -0.01208649303572632 0.03234294146645592
-0.9971547907750925 -0.06835486003840036 0.03177949564438769
-0.9917656199543404 -0.1242820290591631 0.03090197937866515
-0.9831839602021003 -0.1801978263259928 0.0296318036693963
-0.9711040531354252 -0.2370353719485586 0.02776959540859129
-0.9568734830264887 -0.2893706273300153 0.02564717371152054
-0.9410924316121591 -0.3373021078197554 0.02392327784111295
-0.9239450638037416 -0.3818409507266138 0.02286935549801731
-0.9024000671869628 -0.4303360852789077 0.02202208999593664
-0.8874027871064201 -0.460479181795413 0.02179946258016353
0 0 0
0 0 0
0 0 0
0 0 0
0 0 0
0 0 0
0 0 0
0 0 0
0 0 0
0 0 0
0 0 0
0 0 0
0 0 0
0 0 0
0 0 0
0 0 0
0 0 0
0 0 0
0 0 0
-0.8346876197691995 0.5501039196229809 0.02612001185797086
-0.8568748221997833 0.5148196958124038 0.02694846718670642
-0.8785424403316828 0.4768075790055297 0.02859568392146213
-0.9011135606775751 0.4325076441718826 0.030520296457758
-0.9219597494906556 0.3859065754842275 0.0326547901105342
-0.9411556221064419 0.3361912791855143 0.03466293087786003
-0.9584399799716357 0.2829649822219183 0.03638163861234398
-0.9732951638343719 0.2264170198769715 0.03783988856555691
-0.9849813292489553 0.1681802199468138 0.03907933788591852
-0.9932686149581818 0.1087313938750338 0.03993673152683742
-0.9980155340777664 0.04841724963771572 0.04025870933089216
-0.999124632878008 -0.01231965519624558 0.03997741952941337
-0.9965666676674797 -0.07298282485624284 0.03909455422609768
-0.9903858449154167 -0.1331132930590273 0.0376394660184868
-0.980682532042608 -0.1923324932294411 0.03563682638290663
-0.967648317062753 -0.2501159472144366 0.0331473593917576
-0.9519394247643433 -0.3047705334410926 0.03043441350448624
-0.9340616505993712 -0.3560224078913907 0.02787253054162669
-0.914321778362681 -0.4041736804015337 0.02567726002482726
-0.8927447028758349 -0.4499307999285068 0.02385729999037386
-0.8718916536556688 -0.4891767907384794 0.022605567641287
-0.8506399093418567 -0.5252929439156084 0.02188761538747891
0 0 0
0 0 0
0 0 0
0 0 0
0 0 0
0 0 0
0 0 0
0 0 0
0 0 0
0 0 0
0 0 0
0 0 0
0 0 0
0 0 0
0 0 0
0 0 0
-0.7576970452900831 0.6520596538077011 0.02670946339517453
-0.7790549978377557 0.6263518609994059 0.02750739112665282
-0.8115927097031757 0.5835544363547923 0.02795520286631062
-0.8385592890395308 0.5440017080285133 0.02967255343875648
-0.8637965789634007 0.5028066359084259 0.03226386612879265
-0.8883370774176593 0.4578300323238505 0.03533975647047628
-0.9115287666730869 0.4094164130856259 0.03864593411396281
-0.932996090481962 0.3574378619933732 0.04191026078396547
-0.9522970761121866 0.301848225471844 0.04492134913021584
-0.968884657732525 0.2429042379599829 0.04753999570474571
-0.9821633080497963 0.1813599520948422 0.04963672125389201
-0.9917152845233412 0.1178792134498805 0.05104199721038822
-0.9972537363320986 0.05311707575561998 0.05160970485131874
-0.9986102946305069 -0.01223187020109378 0.05126266486786625
-0.9957419753571375 -0.07744689696692603 0.04999896660991548
-0.9887349934494689 -0.141812531714344 0.04787816388758114
-0.9778035409044491 -0.2046321299031446 0.04501029666668543
-0.9633023648096127 -0.2651802608331997 0.04156901750875664
-0.9457712430985186 -0.322624351103596 0.03781909309946176
-0.9257427456463926 -0.3766168083973492 0.03406095294721098
-0.9036861964829471 -0.4271059997646736 0.03052414210427976
-0.8800375819523736 -0.4741165381938835 0.027337932666286
-0.8555117849160171 -0.5171995757109468 0.02458016993892169
-0.8292651963487274 -0.5584174002884822 0.02211879697810909
-0.7977523543145291 -0.6026705994300264 0.01947639002171492
-0.776899278369066 -0.6293616769648726 0.01820414341811241
0 0 0
0 0 0
0 0 0
0 0 0
0 0 0
0 0 0
0 0 0
0 0 0
0 0 0
0 0 0
0 0 0
0 0 0
0 0 0
-0.7087687948826749 0.7049854172509586 0.02534476009063582
-0.734874214968057 0.6776792218313119 0.02666009139498534
-0.7613261450746288 0.6477414832756258 0.02852142474871929
-0.7905530616073921 0.6116172507801347 0.03082523854454488
-0.8189046883387269 0.5729199804717238 0.03402656892975863
-0.846473029626496 0.5310697852783807 0.03805644859041832
-0.8733036392869092 0.4853048977012055 0.04266040172644728
-0.8989583273324802 0.4354449031075086 0.04755693511236007
-0.9229208549144514 0.3814005461248191 0.05244729716264947
-0.944603724806544 0.323218097086383 0.0570426576998265
-0.9633574072628428 0.2611748714499382 0.06107530102194001
-0.9785253529085481 0.1958438996640103 0.06429075112015421
-0.9895510440874892 0.1279566945883389 0.06645160235378875
-0.9960192628611289 0.05836375735580328 0.06737432624439112
-0.9976833014210005 -0.01199824195204143 0.06696321569154699
-0.9944831154086041 -0.08215320970951084 0.06522410061949262
-0.9865500166484044 -0.1511379928035747 0.06226051543585939
-0.9741969663602503 -0.2180500644705415 0.05826182385471194
-0.9578976871710652 -0.2820828521376278 0.05349098468176518
-0.9382515991081163 -0.3425701708461117 0.04826608351138035
-0.9158892628258424 -0.3991305650870687 0.04291445273578381
-0.8914186022634452 -0.4516087041003912 0.03771543343845463
-0.8654105366422412 -0.4999840407243467 0.03287190425792271
-0.8383855524037217 -0.5443315909290333 0.02850937806009899
-0.8104255918455214 -0.5853221122371799 0.0246654618452903
-0.7815626607378813 -0.6234592262050268 0.02141029192122703
-0.755374198958854 -0.6550095115529331 0.01929661427444795
-0.7297759423155677 -0.6834383231427841 0.01841554987513611
0 0 0
0 0 0
0 0 0
0 0 0
0 0 0
0 0 0
0 0 0
0 0 0
0 0 0
0 0 0
0 0 0
-0.653284062584917 0.7567206160735118 0.02436888963146681
-0.6811425805241259 0.731701301842391 0.02565131339881449
-0.7088330250089125 0.7048224840927653 0.02794653062577148
-0.7372058349317964 0.6749498612315085 0.03114870408347477
-0.7667689226584615 0.6409561522643441 0.03522257968503336
-0.7965581693638448 0.6032199867887805 0.04025829552108256
-0.8262304785668508 0.5614358016189357 0.04618481295507586
-0.8554753510603835 0.5151461412473806 0.05278614293587507
-0.883785012040293 0.4640610675696048 0.05976100784874043
-0.9105221888191478 0.4080361692629814 0.06675199054095021
-0.9349507253558303 0.3471080944417091 0.07336969353657864
-0.9562689323907754 0.281557943600061 0.07921397187309021
-0.9736713731464806 0.211956361542169 0.08389611383640906
-0.986437919810186 0.1391359124130843 0.08707139735602602
-0.9940100746757754 0.06414609374265973 0.08848304979269467
-0.9960503358330506 -0.01181367396137182 0.08800094087224805
-0.9924780332152869 -0.08748062591504815 0.08564165852332817
-0.9834759791588321 -0.1616228990952262 0.08156615048921935
-0.9694670940759441 -0.2331279245268214 0.07605868990299933
-0.951065446734062 -0.3010734743972309 0.06949301434617833
-0.9290081731798976 -0.3647791802573254 0.06228935555728928
-0.9040727347538935 -0.4238424690022397 0.05486393847237559
-0.8770148920792101 -0.4781012041444299 0.04758274547498147
-0.8485303098168465 -0.5275765043822372 0.04073506285676815
-0.8192173584846077 -0.5724426357639125 0.03453039700271743
-0.7895042126362073 -0.6130540677174758 0.02911714760649039
-0.7598551695699718 -0.6496249819464268 0.0246475984406852
-0.7313348357873197 -0.6816844786319641 0.02134548093158576
-0.7036487852567982 -0.7102869226272703 0.01925810352329614
-0.6762058333219229 -0.736486624736289 0.01825164556832197
0 0 0
0 0 0
0 0 0
0 0 0
0 0 0
0 0 0
0 0 0
0 0 0
0 0 0
-0.597093893339894 0.8018390801381688 0.02308618849836175
-0.6235514114506217 0.7813971587860633 0.02453808303442593
-0.6507994888504948 0.7587702758740875 0.02697579955988486
-0.6791151389920087 0.7333944217851196 0.03058185877827067
-0.7085873288816702 0.7047350554492161 0.03539066217704066
-0.7392125556830934 0.6721982573563517 0.04140411003212976
-0.7706014659138458 0.6354607735901066 0.04861055399493548
-0.8023987805759666 0.5940695129263454 0.0569000065171845
-0.8341796624207783 0.5475245533614557 0.0660390359552137
-0.8653535852920722 0.4954146471873832 0.07568024692319636
-0.8951646355817477 0.4374823287303509 0.08537849408642326
-0.9227150627374178 0.3736913556551007 0.09461333788708445
-0.9470103329479371 0.3043012183654716 0.1028211932975212
-0.9670354545723444 0.2299242400435936 0.109440730262707
-0.9818593108851229 0.1515339416046263 0.1139726202645033
-0.9907441745364824 0.07042255816168722 0.1160458699135254
-0.9932392750660674 -0.01189243026080748 0.1154742939736987
-0.9892386570478324 -0.09380058082400024 0.1122868221978002
-0.9789905255691816 -0.1737458850482971 0.1067235600725586
-0.9630569142738727 -0.2503614600479274 0.09919939108661883
-0.9422343731238534 -0.3225681614111089 0.09024504057151869
-0.9174541046189252 -0.38962499924673 0.08043833588452327
-0.8896817978094549 -0.4511305933615291 0.07033837060815654
-0.8598390321600453 -0.5069758626419899 0.06043437326957268
-0.8287510411632392 -0.5572779247579966 0.05111776939839193
-0.7971135610601916 -0.6023192826717882 0.04267847813221542
-0.7654820042200472 -0.6424870735421472 0.03532225285151638
-0.7343547053944669 -0.6781373911457433 0.02920351682674721
-0.7042735086711913 -0.7095077915496614 0.0244441959223608
-0.6754344803145527 -0.7371184366655682 0.0210872741225256
-0.6479632387477413 -0.7614315771305149 0.01912052771430706
-0.6218116901792405 -0.7829470759189631 0.01854988588592391
0 0 0
0 0 0
0 0 0
0 0 0
0 0 0
0 0 0
0 0 0
0 0 0
-0.5695446627459053 0.8216190821265142 0.02368461575024202
-0.5904880403290312 0.8066327650252665 0.02583518175033367
-0.6167380841441065 0.7866174796794003 0.02944615813794383
-0.6453031634443183 0.7631444839608788 0.03455899085388382
-0.6755532834609079 0.7361576358422919 0.04122737435579758
-0.7072937304749933 0.7051868037271605 0.04946868382965091
-0.7402805560308694 0.6696825006861824 0.05924564656856447
-0.7741964109154486 0.629015664929287 0.07042166285458278
-0.808586905335912 0.582531826562827 0.08272779194846792
-0.8428000305345117 0.5296418187764178 0.09574785811825483
-0.8759663962708306 0.469914469439577 0.1089186118880251
-0.9070129694721595 0.4031793831818428 0.1215477609271492
-0.9347140606934334 0.3296347022814796 0.132855514728566
-0.95778689782102 0.2499355271852294 0.1420439742228705
-0.9750278429831978 0.1652294114845878 0.1483911957900088
-0.9854668483613428 0.07711473287836665 0.1513552402590006
-0.9885063136069315 -0.01248548669822126 0.1506631361054934
-0.9840088126199265 -0.1015166020865397 0.1463592709298761
-0.9723100341103883 -0.1880114047051466 0.1387980881318346
-0.9541550927502808 -0.2702856171844554 0.1285836075163569
-0.9305786056611483 -0.3470696668352865 0.1164736238321617
-0.9027616769442741 -0.4175593832895151 0.10327398543506
-0.8718986459854807 -0.4813922061721118 0.08974572393953721
-0.8390964087532045 -0.5385710995792923 0.07654010396796242
-0.8053125480913147 -0.5893677679219956 0.0641664555770237
-0.7713278930880374 -0.6342281833826741 0.0529895531919401
-0.7377523919109129 -0.6736846541698638 0.04324806314457491
-0.7050738847753666 -0.7082654674760861 0.03508339477093393
-0.6737170993390886 -0.7384370969675177 0.02856438132200094
-0.644072242905276 -0.7645973875325504 0.02370191758836713
-0.6169715368710683 -0.7867185510151588 0.02049497937448369
-0.5955878654361774 -0.8030653562929265 0.01900336989305465
0 0 0
0 0 0
0 0 0
0 0 0
0 0 0
0 0 0
0 0 0
-0.4902801645750576 0.8712196305482485 0.02452989139045418
-0.5238097840304664 0.8514609876854599 0.02524869508818873
-0.5505501238961341 0.8343284647418199 0.02811714778401786
-0.577913534896223 0.8154312328535436 0.03298258132259242
-0.6069176641900937 0.7937677665971589 0.03979549730055004
-0.6377460578931576 0.7687121740590966 0.04859587528868874
-0.6704180013846761 0.7396007873728039 0.05941699030499898
-0.7048279782540579 0.7056914504817571 0.07222948004277913
-0.7407306043940265 0.6661593287154266 0.08689027839448771
-0.777689478619624 0.6201371788219869 0.1030968199657177
-0.81501950992537 0.5667968422355355 0.1203517265054165
-0.8517500417412037 0.5054633211179188 0.1379445446485691
-0.8866237640458959 0.4357585161502226 0.1549606938279606
-0.9181475532841569 0.3577606368786606 0.1703302589045496
-0.9447089327779064 0.2721458680453723 0.1829252821111923
-0.9647566642728064 0.180263576700527 0.1917019083273303
-0.9770182773551868 0.08409900191453953 0.1958638394162664
-0.9807035699623058 -0.01389725041048725 0.1950060878388578
-0.9756355519598958 -0.1110891720378788 0.1891942536332631
-0.96226821949288 -0.2049780631659901 0.1789521371057668
-0.9415884248585343 -0.2934839652954016 0.1651617397792568
-0.914937377635538 -0.3751208631019327 0.1489091436785042
-0.88380688615129 -0.4490434866981021 0.1313214949868121
-0.8496601901938236 -0.5149858943746888 0.1134331952952804
-0.8138061997287093 -0.5731353388355965 0.09610074224958548
-0.7773322212452419 -0.6239870075376275 0.07996769496599476
-0.741085820739792 -0.6682107560999727 0.06546901351579174
-0.7056934418788071 -0.7065427093647152 0.05285987072259943
-0.6716038275399197 -0.7397046071554099 0.04225391090526066
-0.6391315070948196 -0.768360609551029 0.03365843622444775
-0.6084716013209147 -0.7931162686906487 0.02699805037746463
-0.5796670704369101 -0.8145531492855309 0.02211909672914412
-0.5519756611225368 -0.8336500141316583 0.01872227194076003
-0.5184970357948532 -0.8549255477139398 0.01622133588733648
0 0 0
0 0 0
0 0 0
0 0 0
0 0 0
-0.4243385075858935 0.9052030333362152 0.02333022543163005
-0.4532900204270931 0.8910275035662781 0.02445700859980833
-0.4811039931296835 0.8762565876412098 0.02670843331338625
-0.5076219948122007 0.8610247001095905 0.03092533240033261
-0.5348753542385402 0.8441047811814139 0.03735604120986104
-0.5637893065050721 0.8246295304303302 0.04612759925231748
-0.5947587860950698 0.8018551756686692 0.05736081952069638
-0.6279608387855157 0.7749858117306091 0.07114897446934851
-0.6634194608955792 0.743113010723972 0.08750812646704637
-0.700986827112018 0.7052048767941128 0.1063181544291729
-0.7402848252135876 0.660138890735019 0.1272596656353695
-0.780632252862592 0.6067841369781957 0.1497541214868554
-0.8209823259502096 0.5441386183482756 0.1729195896924718
-0.8598966468608435 0.47152235972851 0.1955618086271822
-0.8955859432820936 0.3888093207858866 0.2162247216798752
-0.9260449314302546 0.2966517377744362 0.2333206622820655
-0.9492880285106093 0.1966221313134267 0.2453405315152912
-0.9636532610183597 0.09119212318428287 0.2511103128065886
-0.9680987875618253 -0.01649693461631277 0.250025176071507
-0.9623974698574261 -0.1230414453692313 0.2421815697642462
-0.9471613772945875 -0.2252524481785494 0.2283564318143664
-0.9236920289546003 -0.3205613100592021 0.209841564373841
-0.8937170143894163 -0.4072500643820469 0.1881948013407539
-0.859102458194675 -0.4844808446192784 0.1649887193745574
-0.8216159708569744 -0.5521697930887152 0.1416182051613295
-0.7827758949511995 -0.6107824343662656 0.1191919298986577
-0.7437860936337256 -0.6611201387524225 0.09850080737262841
-0.7055352078380429 -0.7041403093183567 0.08004058529257548
-0.6686351430857159 -0.7408258917095479 0.06406280983142185
-0.6334757957767609 -0.7721040421411779 0.05063362789938076
-0.6002729872020989 -0.7988099512000335 0.0396863036735399
-0.5690844681971609 -0.8216922463841875 0.03105994669766239
-0.5397501400364151 -0.841468053870661 0.02452143237643917
-0.5115936130842158 -0.8589998861752129 0.01977803333014178
-0.4828446850609098 -0.8755494977455848 0.0165555762776273
-0.4537525367958784 -0.8910018756006524 0.01497641570683646
0 0 0
0 0 0
0 0 0
0 0 0
-0.3939003296605875 0.9188677874164397 0.02290239161521033
-0.4131230947653963 0.9103370005732598 0.02481640503258824
-0.4365575820132134 0.8992271164546271 0.02842658297214964
-0.4613092736949461 0.8865812475428937 0.03416790172554686
-0.487512068229592 0.8720868687954738 0.04238486292311478
-0.5156612448877561 0.8551299418280309 0.05335038059842935
-0.5461582053376087 0.834973805592462 0.06730496799526114
-0.5792836648511783 0.8107401844319563 0.08444399909895636
-0.6151879577949362 0.7813743385186499 0.1048709668527819
-0.6538467073557089 0.7456305669756234 0.1285283660197538
-0.694983125579175 0.7020958892845557 0.1551122735631489
-0.7379689994956541 0.6492714811968819 0.183979073505086
-0.7817257497883596 0.5857322959729314 0.2140619760071942
-0.8246590877456613 0.5103776311530102 0.2438279364985375
-0.8646738916412405 0.4227596601912083 0.2713177672564144
-0.8993183655437733 0.3234305651314158 0.2943113095591949
-0.9260820935004306 0.2141950151392503 0.3106323415025476
-0.942813479913253 0.0981298004779982 0.3185487158222577
-0.9481474072613214 -0.02072091618858904 0.3171547536076651
-0.9417927021649373 -0.137940191238328 0.3065925794764093
-0.9245661674206428 -0.2494459406399853 0.2880175771707971
-0.8981668744881766 -0.3520758660067368 0.2633227110367536
-0.8647924142605684 -0.4438837299976605 0.2347366918075243
-0.8267403060877478 -0.5241234779853617 0.2044383675205421
-0.7861031458059463 -0.5930147479871027 0.174285262784285
-0.7445982220200842 -0.651421375892098 0.1456834884102335
-0.7035165639885522 -0.7005472263681664 0.1195743610545736
-0.6637516049547083 -0.7417027576428736 0.09649262264548947
-0.6258671264606199 -0.7761535602825974 0.0766550120773212
-0.5901740816152445 -0.8050394249367061 0.06005062603486977
-0.5567954672183862 -0.8293460456129809 0.04651821483214351
-0.5257062752468965 -0.8499122765698003 0.03580550658729533
-0.4967452785681079 -0.8674569557418788 0.02761445555002712
-0.4696459637768922 -0.8825894063236489 0.02164736827751488
-0.444484062037812 -0.8956121026392874 0.01768841995205767
-0.4243048152075238 -0.9053827137553403 0.01573421191938125
0 0 0
0 0 0
0 0 0
-0.3153946365844246 0.948718900851633 0.02141659124714474
-0.3448372538036157 0.9383865135195317 0.0227600446800469
-0.3664409798202868 0.9300887802533545 0.02560994250627759
-0.3881623801644377 0.9210866674443734 0.03048471225542331
-0.4110480553433465 0.9108306771304737 0.0377753067028592
-0.4355936018607314 0.898868851153911 0.04788530508665529
-0.4622805627856558 0.8846188097121824 0.06120655825953578
-0.4915536248473089 0.8673369906791938 0.07811260140995484
-0.523793664424581 0.8460805068370949 0.09893418549193798
-0.5592843889086709 0.8196635131843764 0.1239060025878462
-0.5981510038898104 0.7866263488037456 0.1530828661650271
-0.6402633422664015 0.7452401555948803 0.1862255703140007
-0.6851067805849418 0.6935776725825302 0.2226627748222327
-0.7316381238328932 0.6296879188939022 0.2611489623822956
-0.7781649375005909 0.551907849651799 0.2997616645560738
-0.8223126723715612 0.4593129212142726 0.3359069949595454
-0.8611593636502072 0.3522385713015905 0.3665140369549084
-0.8915948748743842 0.2327083092083439 0.3884654706960764
-0.9108782691452987 0.1045383200917424 0.3992148775174348
-0.9172427733241322 -0.02705846766881866 0.3974085229484509
-0.9103147172267607 -0.156338644432552 0.3832562378583734
-0.8911615700288912 -0.2780784615807144 0.3584737442387436
-0.8619589979285612 -0.3884135286644897 0.3258245181695038
-0.8254440468759244 -0.4852060858190126 0.28847388055297
-0.7843775674644363 -0.5679339028438128 0.2494051195528419
-0.7411678083821533 -0.6372825103300154 0.2110480557727765
-0.6976931967273453 -0.6946583663259074 0.175139822238686
-0.6552829629938854 -0.7417715868640035 0.142755564974581
-0.614788688765377 -0.7803467863107812 0.1144279741172742
-0.5766898622867958 -0.8119582464024601 0.09029179826915563
-0.5411972140149974 -0.8379589341438728 0.07021680874882541
-0.5083358028217307 -0.8594695887398598 0.05391416883271252
-0.478002165684148 -0.8774005215831062 0.0410152938177558
-0.4500003824057818 -0.8924856468964308 0.03112918114099903
-0.4240758188403086 -0.9053116245944507 0.0238864448815128
-0.3999478942315394 -0.9163416016220969 0.01896710405958419
-0.376801260575449 -0.9261548629306926 0.01606175266221265
-0.3470385381764354 -0.9377349363724303 0.01474591899327705
0 0 0
0 0 0
-0.2847520758101344 0.9583750165252399 0.02082265646032827
-0.2999308559391846 0.9536863835521308 0.02288587955149606
-0.3175272036385153 0.9478724272706185 0.02672707559031191
-0.3364763564507217 0.9411203140050193 0.03280573298586628
-0.356885432525795 0.9332211672267914 0.04160578193882215
-0.3790907216634556 0.923804584061662 0.05362196579145128
-0.4035339968499757 0.9123315167496439 0.06936509880031323
-0.4306933418782128 0.8980641694569458 0.08935319132175529
-0.4610383842304977 0.8800165608550576 0.1140809400687413
-0.4949843808793815 0.8568934786353131 0.1439584278801584
-0.5328215776272528 0.8270337747331252 0.1792102169673447
-0.574604696420179 0.7883839121994671 0.2197276719872491
-0.6199967142642553 0.7385430457834157 0.2648740150080456
-0.6680769948003675 0.6749377142786374 0.3132606117322085
-0.7171524285131574 0.5951898297077024 0.3625485634921148
-0.7646519437787355 0.4977105890230371 0.4093794993032044
-0.8072219378023039 0.3824565337146383 0.4495772936322254
-0.8411300094645631 0.2516224301493132 0.4787342267102881
-0.8629775210560868 0.1099024521692703 0.4931442478211339
-0.8705273435462759 -0.03600721006366754 0.4908010034236835
-0.8632986373936946 -0.1786597824123589 0.4720128651028039
-0.8426359979848185 -0.3114057080531782 0.4393074776190669
-0.81123630483015 -0.4295840275611427 0.3966777293847876
-0.7723970495507464 -0.5309519673479904 0.3485581819647898
-0.7293203024860883 -0.6153979597603308 0.2989602774691353
-0.6846725203793702 -0.6842726587369163 0.2509869883927693
-0.6404217249205592 -0.739681988318482 0.2067137402472121
-0.597869029308972 -0.7839399646204143 0.1673043802896104
-0.5577740725026761 -0.8192308177549613 0.1332251901267779
-0.5205012446651583 -0.8474463631785317 0.104465859674347
-0.4861483112368493 -0.8701399046179064 0.08072401051173939
-0.4546441141260647 -0.8885444591160286 0.06154245416563318
-0.4258172220059663 -0.9036184692433905 0.04640426149991796
-0.3994472099339022 -0.9160955684406269 0.03479706825962813
-0.3753199699378224 -0.9265233189737261 0.02625756203043852
-0.3533120377118431 -0.935283022313622 0.02040274931966866
-0.333532156245968 -0.9425864127359351 0.01694565653834625
-0.3172502659031131 -0.9482126913782941 0.01565122019316721
0 0 0
0 0 0
-0.2417318589965115 0.9701104759188552 0.02124553738039678
-0.251855384342952 0.9674769614031415 0.02360496836700563
-0.265763358882088 0.9636274094134595 0.02814343445308021
-0.2815736350804755 0.9588916835473812 0.03525659159980634
-0.2989655169456319 0.9531808628352358 0.04545175906503395
-0.3181401658144024 0.9461874948197799 0.05929637039695465
-0.3395028423957615 0.9374138342474989 0.07741526572066178
-0.3635507769372806 0.9261397783069495 0.1004785729688342
-0.3908197196517843 0.911359204763454 0.1291679009050809
-0.4218368223541697 0.8916961364904576 0.1641087915808509
-0.4570508132706601 0.8653148240193401 0.2057542452077372
-0.4967182309937053 0.829850727775681 0.2542022199129186
-0.5407310173016606 0.7824122188898612 0.3089354085561483
-0.5883849024342386 0.7197334247449638 0.3684928817390322
-0.6381205558001458 0.6385821940384194 0.4301336277511798
-0.6873262869286103 0.5365072711862597 0.4896350919421545
-0.732357511253755 0.4128882198837736 0.5414571022633413
-0.7689463333620218 0.2700015666168813 0.5795003800115505
-0.7930554603599196 0.1135410690214515 0.5984742788447817
-0.8019521933791093 -0.04797832333898302 0.5954584452537516
-0.7950157804301576 -0.2049965412642355 0.5708995769281385
-0.7738393431787031 -0.3491511984015797 0.5284563478694276
-0.741596798846369 -0.4749319724433126 0.4737866708677248
-0.7020659082402422 -0.5801392298838817 0.4129672316740636
-0.6587776097786782 -0.6653058139000559 0.3512552274985741
-0.6145361364146947 -0.7326618892616832 0.2924925521513328
-0.5712957334418092 -0.7851571626674304 0.2390594379295972
-0.5302570518703389 -0.8257803545006708 0.1921308540097671
-0.4920479679408278 -0.8571918600472933 0.152022736174438
-0.456904839538503 -0.881586022552036 0.1185076050183074
-0.4248183246797126 -0.9006876152473663 0.09105608577318598
-0.3956378709320957 -0.9158107153192595 0.06900296218818343
-0.3691435977598277 -0.9279358329303518 0.05165359810104471
-0.3451026586500768 -0.937781153685051 0.03834922144949855
-0.3233369224512354 -0.945854398347741 0.02850774817477188
-0.3038542167079482 -0.9524724370442768 0.02165344452355981
-0.2871917476452446 -0.9577142564712827 0.01744428376653642
-0.2754933535036967 -0.9611754978392009 0.01565485639828499
0 0 0
0 0 0
-0.1909651392996538 0.9813442073747297 0.02226796408131091
-0.1995834699070162 0.979570976997501 0.02464020219145221
-0.2108834033692713 0.9770615895871493 0.02964524138585468
-0.2235836487952389 0.973958590948602 0.0376166865741835
-0.2375602635311319 0.9701337725075707 0.04904675964064972
-0.2530652391921931 0.9652928655053176 0.06455748227069097
-0.2705117331173821 0.9589674380742731 0.08488141704221612
-0.2904061552754488 0.9504620451422576 0.1108429777754478
-0.3133169376207546 0.9387709525348885 0.1433233940314344
-0.3398419431289562 0.9224686708281061 0.183191170723269
-0.3705513914473881 0.8995831488500592 0.2311748788285956
-0.4058847776485826 0.867476260293725 0.287649934990386
-0.4459806605578017 0.8227866814688126 0.3523114065794133
-0.4904270847999762 0.7615365113312116 0.4237256381245816
-0.5379506442431101 0.6795525397807473 0.4988160482943167
-0.5861281148170179 0.5733581380342817 0.5724633425564553
-0.6312999908780103 0.4415590533978285 0.6375624862551412
-0.6689260099968162 0.2863902918636507 0.6859435792220755
-0.6945156807712141 0.1146182109040196 0.71028912063473
-0.7049123825923003 -0.06313220181851287 0.7064791985342471
-0.6993140957342547 -0.2348236035545805 0.6751427039678516
-0.6794261969602211 -0.3901583703569901 0.6214149088367191
-0.6486921902850126 -0.5227993664737998 0.55306352680124
-0.6111268821281948 -0.6307922318323892 0.4781475652977688
-0.5703567932745818 -0.7155574969946211 0.4033244312713133
-0.529138949152048 -0.780388277376739 0.3331757929730669
-0.4892942776935799 -0.8291715460407005 0.2703065982413154
-0.4518649519649362 -0.8655907458435014 0.2158025159626649
-0.4173354776283542 -0.8927592734238254 0.16974091677753
-0.3858316032274668 -0.9131331902357781 0.1316121226967783
-0.3572689228541531 -0.9285662109167806 0.10061664229284
-0.3314528863514218 -0.9404174945602737 0.07585459810906879
-0.3081436127850313 -0.949664366652808 0.05643673103315901
-0.2871023088331459 -0.9569986038661493 0.04154439144959434
-0.2681404900992837 -0.9628982070586203 0.03045850312490204
-0.251210862763471 -0.9676691688690837 0.02257170905909969
-0.236656225158673 -0.9714376639563781 0.01739816486362813
-0.2260631340714328 -0.9740026894427369 0.01463626906408049
0 0 0
-0.09951791967618787 0.9947920805897527 0.02202044639043647
-0.1294233867311557 0.9913305030128772 0.02265878997813179
-0.1430379147492164 0.9893918661480453 0.0253749905277545
-0.1532041707016794 0.9877117180643951 0.03088760395192725
-0.1629265501395219 0.9858425983788356 0.03961452361570469
-0.1731587290619122 0.9835150369137342 0.05209824098987181
-0.1844211889002103 0.9804199265962446 0.06903327181618134
-0.1971749359030891 0.9761115300287894 0.09125966029121299
-0.2119159808958493 0.9699234260857658 0.1197504261829553