# OOMMF: rectangular mesh v1.0
# Segment count: 1
# Begin: Segment
# Begin: Header
# Title: 
# Desc: time = 6e-11
# Desc: stepsize = 3.6385782475656897e-14
# Desc: step = 382
# meshunit: m
# valueunit: (none)
# valuemultiplier: 384000.0000000001
# xmin: 0
# ymin: 0
# zmin: 0
# xmax: 9.357999999999999e-08
# ymax: 9.357999999999999e-08
# zmax: 2.3395e-08
# ValueRangeMaxMag: 1
# ValueRangeMinMag: 0
# meshtype: rectangular
# xbase: 1.16975e-09
# ybase: 1.16975e-09
# zbase: 1.16975e-09
# xstepsize: 2.3395e-09
# ystepsize: 2.3395e-09
# zstepsize: 2.3395e-09
# xnodes: 40
# ynodes: 40
# znodes: 10
# End: Header
# Begin: Data Text
0 0 0
0 0 0
0 0 0
0 0 0
0 0 0
0 0 0
0 0 0
0 0 0
0 0 0
0 0 0
0 0 0
0 0 0
0 0 0
0 0 0
0 0 0
0 0 0
-0.9642032787458588 0.2414439990298539 0.1096213144794706
-0.9723987625846591 0.2049153684301804 0.1115810839925233
-0.9813230382364077 0.1552344885834959 0.1136105108723916
-0.9882826996169511 0.1000906782815471 0.1152352452983473
-0.9922657450539532 0.04313346972377514 0.1163967137942932
-0.9930210603531049 -0.01277402453733017 0.1172433281356097
-0.9909596616526865 -0.06368125747780225 0.1180832182117274
-0.9876954344642295 -0.1011766105976869 0.1192519274749071
0 0 0
0 0 0
0 0 0
0 0 0
0 0 0
0 0 0
0 0 0
0 0 0
0 0 0
0 0 0
0 0 0
0 0 0
0 0 0
0 0 0
0 0 0
0 0 0
0 0 0
0 0 0
0 0 0
0 0 0
0 0 0
0 0 0
0 0 0
0 0 0
0 0 0
0 0 0
0 0 0
0 0 0
-0.8731144805756165 0.4775254622400294 0.09818623488869022
-0.8895066394693592 0.4455614079602609 0.1012569507559685
-0.9104977442170178 0.4000477358166663 0.1046693214064176
-0.9323613485324121 0.3451021435778224 0.1077349816021374
-0.9544160786391708 0.2771688640443491 0.1107581583423654
-0.9687166886315823 0.2205363320773954 0.1138055508334733
-0.9796981859359428 0.1631645317936183 0.1164851923567608
-0.9875174143935581 0.1037123834394291 0.1185457624327992
-0.99184969772916 0.04304745540999026 0.1199211978646744
-0.9925367004119134 -0.01756553079923117 0.1206745642758746
-0.9896566047965034 -0.07719209993634238 0.1209180891764112
-0.9831692100333439 -0.137277341970286 0.1205538710452017
-0.9702985893089171 -0.2108756860803984 0.1185415227051091
-0.9555037430192375 -0.2714265327650002 0.1154999324129519
-0.9399370638719551 -0.3220818586317662 0.113055704411915
-0.9271016224085887 -0.3576189442531055 0.1122108392208885
0 0 0
0 0 0
0 0 0
0 0 0
0 0 0
0 0 0
0 0 0
0 0 0
0 0 0
0 0 0
0 0 0
0 0 0
0 0 0
0 0 0
0 0 0
0 0 0
0 0 0
0 0 0
0 0 0
0 0 0
0 0 0
0 0 0
-0.8046452693549203 0.5871781600439271 0.08813511713372665
-0.8252029004337972 0.5573868320590595 0.09143354178207093
-0.855294371418494 0.5090815277916626 0.09647557349479301
-0.8798289733204782 0.4643364769768838 0.1014525201980149
-0.90357767563172 0.4150015508967859 0.1064006431053863
-0.9263866021366326 0.3597912150585092 0.1111671936700083
-0.9473468897305445 0.2985356173841883 0.1158030900749389
-0.964038316147267 0.2370676779785075 0.1201209434604137
-0.9768981992992849 0.1742129229049504 0.123773041082168
-0.985886976534327 0.1096691491752651 0.1264893166207177
-0.9907840702059917 0.04391447298476047 0.1281344812629233
-0.9914353702165274 -0.02230835342611332 0.1286788407277291
-0.9878031097954015 -0.08846950267191761 0.1281333811913067
-0.9798188455179657 -0.1548179756205567 0.1264374327190829
-0.9671071563790058 -0.2224079709528011 0.1234440866836895
-0.951200111342646 -0.284421596174986 0.1196774991843093
-0.93301939716215 -0.3406113764475761 0.1160116147360466
-0.9129431101282977 -0.3921732415178965 0.1128495737989995
-0.8872174910210284 -0.4481636680716591 0.1095191775302689
-0.8692384058511187 -0.4824986623236042 0.107794409174769
0 0 0
0 0 0
0 0 0
0 0 0
0 0 0
0 0 0
0 0 0
0 0 0
0 0 0
0 0 0
0 0 0
0 0 0
0 0 0
0 0 0
0 0 0
0 0 0
0 0 0
0 0 0
0 0 0
-0.7550774547732008 0.6504814766472703 0.08204807025159755
-0.7826428240721014 0.6164686504038255 0.0862357988177256
-0.809758438909103 0.5795855073983674 0.09149814331050031
-0.8386485648521241 0.5358122842451263 0.0978456985436341
-0.8660702498071017 0.488834940159753 0.1047030261170833
-0.8922875944867195 0.4374169737524928 0.1117552674298356
-0.9169471881835376 0.3809330615585078 0.1187343955809149
-0.9392523828901501 0.3194947018145481 0.1254117089733135
-0.9580233488166136 0.2547819969560519 0.1314435131502756
-0.9727877178174084 0.1872713163626226 0.1364313385238463
-0.9831556336912115 0.1174526541074712 0.1400352597896061
-0.9887890531032505 0.04606734413596431 0.1420352360065453
-0.9894768821812742 -0.0259947614112771 0.1423368259024875
-0.9851678960794973 -0.09786656525867385 0.1409480469490998
-0.9759471616499594 -0.1688078685004621 0.137953039835002
-0.9620574455554912 -0.2379262134909627 0.1335536910201105
-0.9443620587373371 -0.3028761857769364 0.1282431990656503
-0.9236531894023416 -0.3630775170663477 0.1226356486011199
-0.9004566096254703 -0.4188731854200943 0.1171458437923683
-0.8748501855516979 -0.4712775278847763 0.1119582268123823
-0.8500350732217798 -0.5155935590873463 0.1077202679187423
-0.8244609719402854 -0.5562061290140443 0.104397546879664
0 0 0
0 0 0
0 0 0
0 0 0
0 0 0
0 0 0
0 0 0
0 0 0
0 0 0
0 0 0
0 0 0
0 0 0
0 0 0
0 0 0
0 0 0
0 0 0
-0.6608757509058327 0.7470589146479171 0.07173715850051073
-0.6862476407353496 0.7234919015663257 0.07499095914247228
-0.7253497275268056 0.683690201365371 0.08022145183033511
-0.7575580830546094 0.6470279124081355 0.08637494638722028
-0.78809698297254 0.6083669838557058 0.09376970930898042
-0.8185734090848503 0.5652165308537566 0.1023124977158231
-0.8483497812424546 0.5175314988251304 0.1116413740048588
-0.8770687432045999 0.4647788539467522 0.1213714818952396
-0.9041557572751279 0.406592044811531 0.1310926225316186
-0.9287826459657341 0.3430202774632164 0.1403562816618731
-0.9499622091633897 0.2747309441685462 0.1486428924559484
-0.9668879956719532 0.2024186838709559 0.1554164735329631
-0.9788854075884622 0.1269484370195526 0.1602106524194396
-0.985437683850021 0.04941026344231331 0.1626997145506612
-0.9862450674760356 -0.02894300203083384 0.1627358888279797
-0.9812637355042655 -0.1068029666814063 0.160357749087048
-0.9707128335099274 -0.1828880936089531 0.1557836322442436
-0.9550809825235329 -0.2559234937021274 0.149410448741643
-0.9351716049049811 -0.324567771716706 0.141809135609429
-0.911842444457109 -0.3881918178165517 0.1336056475855881
-0.8858562847976353 -0.4467111932977295 0.1253305727548101
-0.8578671013432073 -0.5002849721092748 0.1173839133553861
-0.828812235332688 -0.5485868824057387 0.1101031834925059
-0.7975670211713637 -0.5943062985278696 0.1033773199011249
-0.7594850489135071 -0.6433353078709327 0.09644761336321017
-0.7345432306889651 -0.6722061875892776 0.09265572629743764
0 0 0
0 0 0
0 0 0
0 0 0
0 0 0
0 0 0
0 0 0
0 0 0
0 0 0
0 0 0
0 0 0
0 0 0
0 0 0
-0.6040453535073925 0.794357513597408 0.06422889923914453
-0.6336605039346699 0.7705757110965952 0.06846487582137603
-0.6635107350700443 0.7445327044779643 0.07365158796344745
-0.6968873537058203 0.7126562733139264 0.08043041931510918
-0.7294536680483574 0.6782438425606436 0.0887842114306875
-0.7616940467689185 0.6403694512877746 0.0987377586042065
-0.7940130629220422 0.5978430411021555 0.1101224505488445
-0.8261139472120346 0.5500062179781435 0.1225924402527755
-0.8574942446274803 0.4962782842161355 0.1356889275004957
-0.8874244365262663 0.4362584682684653 0.1488503218676074
-0.9149520106948883 0.369875491731473 0.1614154228745852
-0.9389808903196949 0.2975054268430558 0.172642429933558
-0.9584390454887335 0.2198882637710497 0.1817793925020051
-0.9723744251286938 0.1381383348686671 0.1881642309137253
-0.9800561535888914 0.05371413248249308 0.191323620560034
-0.9810697721537477 -0.03168573572547517 0.1910448018600038
-0.9753761767783483 -0.1162753095706346 0.1874069533328593
-0.9633187393822017 -0.1983407527143947 0.1807704405254697
-0.9455839208541819 -0.2763687649494468 0.1717304701628375
-0.9231211039965007 -0.3491621972413796 0.1610378445392674
-0.8969677340912422 -0.4160590758314024 0.1494781904410845
-0.8681107390744085 -0.4768719924416518 0.1377564790796154
-0.8374186837032708 -0.5317361416860653 0.1264382213157757
-0.8056046461188187 -0.580999758314201 0.1159328900295881
-0.7727245945161244 -0.6257533995265092 0.1064395791560062
-0.7387150742011571 -0.6668346026942774 0.09814097919596847
-0.7080506147713049 -0.7001416712805385 0.09201068991411025
-0.6778261277727321 -0.7299527709865576 0.08786747201137282
0 0 0
0 0 0
0 0 0
0 0 0
0 0 0
0 0 0
0 0 0
0 0 0
0 0 0
0 0 0
0 0 0
-0.5409729515481531 0.8391131374731174 0.0568982268027769
-0.5716969320836115 0.8181955060115237 0.06098140527023407
-0.6015049037880189 0.7961047224975132 0.06640121637532627
-0.6319386189323764 0.7715288342253741 0.07346318711215402
-0.6639575924499608 0.7432098934539284 0.08245829067020033
-0.6966825688394562 0.7112626441702481 0.09348181257978747
-0.7300668878385264 0.6750219909086701 0.1065253541250304
-0.7641112125229548 0.63355617799119 0.1214109724279281
-0.7985063424100405 0.586008438141368 0.1377742049806593
-0.8326698827755891 0.5316151328920796 0.1550684261821948
-0.8657418211265677 0.4698011903457728 0.1725628601471009
-0.8965972317803739 0.4003234580217241 0.1893529321697938
-0.923916683818343 0.3234132753556316 0.2044060045249586
-0.9463246239170107 0.2398499632807096 0.2166603362006294
-0.9625499036431475 0.1509911244024486 0.2251651912446741
-0.9715995676036612 0.05871492229512848 0.2292309711453819
-0.9729121098110541 -0.03474321531429576 0.2285496348118434
-0.966447810576159 -0.1270333505304416 0.2232513321025384
-0.9526896357520487 -0.2159565881955242 0.2138812987280019
-0.9325562961687079 -0.2996918936348354 0.2013045537628673
-0.9072503142865141 -0.376949607965529 0.1865632876041125
-0.8780682803972774 -0.4470469458293247 0.1707194282582984
-0.8462418303921668 -0.5098382227199094 0.1547247593254499
-0.8128360985671631 -0.5655792869123784 0.1393468588874482
-0.7786828945127169 -0.6148097344966145 0.125147673416242
-0.7442965106917269 -0.658305531542545 0.1125012502713051
-0.7101767093548332 -0.6966389920091126 0.1017013092465758
-0.6775492153197733 -0.7295616514109443 0.09309595915019488
-0.6457957383970765 -0.7585773438987006 0.08665031789766423
-0.6137615230581626 -0.7852012847230725 0.08219328003286112
0 0 0
0 0 0
0 0 0
0 0 0
0 0 0
0 0 0
0 0 0
0 0 0
0 0 0
-0.4784899954054996 0.8766762783867237 0.04986007632212432
-0.5070829600543414 0.8602306894505205 0.05357268473773519
-0.5353711127830966 0.8425789582063943 0.05863847529750122
-0.5641679053541259 0.8230508736737037 0.06558836721012581
-0.5940431392918517 0.8009548313488903 0.07472688136909987
-0.6254047250941599 0.7755146532181034 0.08628993263354955
-0.6581755794664779 0.7461387957387848 0.100408187352634
-0.6923538723969971 0.711994169347438 0.1170914949607097
-0.7278676894717695 0.672060150572645 0.1361755507985952
-0.764401654436897 0.625263525686815 0.1572756628974351
-0.8013333059184409 0.5705738666613333 0.1797509263090364
-0.8376954325637576 0.5071367909625343 0.2026786557929603
-0.8721729406048788 0.4344571190628702 0.2248585630395893
-0.9031649972340073 0.3526044271963234 0.244873652508487
-0.9289318520759948 0.2623850001052483 0.2612273452730977
-0.9478136836308745 0.1654271640104545 0.2725492148760115
-0.9584882582795878 0.06411865524860876 0.277829186352463
-0.9602041245753408 -0.03862959534288081 0.2766148830271942
-0.9529168966643122 -0.139753808717054 0.2691064120394254
-0.9372829275389395 -0.2364450062561473 0.2561141791478262
-0.9145155835125763 -0.3264819716561624 0.2388948925702598
-0.886155036867861 -0.4084147145761469 0.218921610517107
-0.8538209197877837 -0.4815827627117886 0.1976559627019212
-0.8190139222377135 -0.5459919692431047 0.1763773361371364
-0.7829934480040769 -0.6021266587863097 0.1560921111444189
-0.7467223821124925 -0.6507650181056301 0.1375157273268154
-0.7108717389330745 -0.6928161770279725 0.1211078677651096
-0.6759593221949275 -0.7291080134271641 0.1071470927933562
-0.6424898584227918 -0.7602830974336183 0.09579349445867121
-0.6104333315782271 -0.7872706048751208 0.08704103858449282
-0.5795735255721727 -0.8109010851526339 0.08083290514463826
-0.5494069917037698 -0.8319844497584672 0.07716108363102141
0 0 0
0 0 0
0 0 0
0 0 0
0 0 0
0 0 0
0 0 0
0 0 0
-0.4484034379058253 0.8925777469801628 0.04732148000699395
-0.469040564014701 0.8816989215652211 0.05106819968920565
-0.4943351328387354 0.8673845196735323 0.05724396450303731
-0.5214780650391877 0.8507148706611698 0.06591537391938943
-0.5502003429641844 0.8314440567044309 0.07733280786944247
-0.5807030128891209 0.8089287690711675 0.09175106206743708
-0.6131418520155715 0.7823667462899035 0.1093587838569172
-0.6476295579434255 0.7507446311846405 0.1302246306404466
-0.6841497871179232 0.7128483164788074 0.1542282285440305
-0.7224372733893701 0.6673300633819446 0.1809833487489431
-0.761879867575047 0.6128126354003665 0.2097611529275278
-0.8014415475286051 0.5480566051374658 0.2394272404304699
-0.8396268891342183 0.4722037270326071 0.2684219201542776
-0.8745258779331319 0.3850753790117281 0.2948244245381619
-0.9039756465108184 0.2874599731887926 0.3165356130511155
-0.9258452413705844 0.1812872487152827 0.3315803409200956
-0.9383996168544908 0.06957843312247826 0.3384745200625373
-0.9406432542976418 -0.04388323774344759 0.3365479603109982
-0.9325232359492908 -0.1551050715607004 0.3261024857170099
-0.9149145786381008 -0.2604959167030392 0.308339409055199
-0.8893997725058062 -0.3573426137893416 0.2850864799263918
-0.8579338040263987 -0.4440303489022338 0.2584311071882651
-0.8225098882775929 -0.5200020318585183 0.2303809248800633
-0.7849107819387643 -0.5855387867276289 0.2026311763619146
-0.7465734940843033 -0.6414750807516303 0.176458886728448
-0.7085525120979878 -0.6889338891503796 0.1527201164868688
-0.671557225507462 -0.7291160673458713 0.1319115355335164
-0.6360508603407851 -0.7631407339435624 0.1142607686646088
-0.6023459642110534 -0.7919701955377406 0.09981256823951951
-0.5706366543006233 -0.8164201196266205 0.08849857082148217
-0.5415702349690646 -0.8368126967294441 0.08028817589126691
-0.5184465393120598 -0.8517696939782663 0.07550876965967923
0 0 0
0 0 0
0 0 0
0 0 0
0 0 0
0 0 0
0 0 0
-0.3639781366336401 0.9305341697767087 0.04032461941139664
-0.3980692594088657 0.9163070817289679 0.04384286358142243
-0.4231101753797244 0.9047564941798905 0.04892305928140386
-0.447658033962673 0.8924142813480916 0.0565600130360913
-0.4732050937470024 0.878390416010984 0.06713580499212191
-0.500325880954928 0.8620395169235341 0.08100545727859625
-0.5294478760558992 0.842603004885549 0.09851458114279522
-0.5609136851112524 0.819137656597192 0.1199555642701712
-0.5949797820635306 0.7904605348024418 0.1455032709442324
-0.6317506008198621 0.7551303125858313 0.1751267808696526
-0.6710704973662101 0.7114781641140436 0.2084783191451262
-0.712400028500172 0.6577044210862238 0.2447674281365652
-0.7546950161169244 0.5920718474082953 0.2826417523205
-0.7963226161640429 0.5132197538679596 0.3201183768941807
-0.8350713406810705 0.4205859614491841 0.3546312239566398
-0.8683181508674135 0.3148558769897413 0.3832614846279442
-0.893384216382165 0.1982797765235396 0.4031746174314541
-0.9080322703229893 0.07466502971334479 0.4121923451375368
-0.910960456909103 -0.05107380064291517 0.4093195729938229
-0.9021006789683061 -0.1737315474587327 0.3950084991775674
-0.8825938004834425 -0.288721871126218 0.3710362037343096
-0.8544636017546342 -0.3927540056224629 0.3400532963286896
-0.8201414083522857 -0.4840890236076872 0.3050014549612592
-0.7820206582622665 -0.562399488564062 0.2686084609872373
-0.7421546978415557 -0.6283958622130092 0.2330773365758175
-0.7021201981913006 -0.68340054327198 0.1999773105814023
-0.6630094535665879 -0.7289877437921147 0.1702801629145804
-0.6255001359496968 -0.7667316724123823 0.144471874240703
-0.5899577165547302 -0.7980591138024379 0.122684732360615
-0.5565225394872881 -0.8241945039081817 0.1048145160279119
-0.5251433827871984 -0.8461766419233697 0.09060639148595868
-0.4955426341154281 -0.8649192271773081 0.07970086720325166
-0.4664328045192496 -0.8816593545172204 0.07153475701073692
-0.4291297718785417 -0.9009174795392156 0.06477139760864517
0 0 0
0 0 0
0 0 0
0 0 0
0 0 0
-0.2955562323022465 0.9547305490591954 0.0337059674305198
-0.3245928925593992 0.9451413944577441 0.0367042038790181
-0.3506934765362732 0.9355981403770081 0.04086814453808943
-0.373752096246576 0.9263273184947248 0.04719183787120623
-0.3962578242380974 0.9164064487316878 0.05638224412937801
-0.4195466895501058 0.9051115282027448 0.0689470579650683
-0.4443900198437002 0.8917568498185716 0.085365280207894
-0.4713662512681696 0.8755305034381622 0.1061140646413585
-0.5009643790030249 0.8553988822158645 0.1316337467139883
-0.5335881073859007 0.8300339732858705 0.1622570024609191
-0.5694967203255157 0.7977653884141869 0.1981006577143098
-0.6086952895994167 0.7565771652374997 0.238916381733591
-0.6507864250851761 0.7041842079568854 0.2839042623649556
-0.6948017374775528 0.6382392552309293 0.3315134969808046
-0.7390551822571746 0.5567197064143511 0.3792896071193258
-0.7810946138827691 0.4585030395084239 0.4238704600757924
-0.8178512389821911 0.3440402449765012 0.4612544425063058
-0.8460589545847957 0.2158967733405232 0.4874144321088906
-0.8629067869888126 0.07883789722751529 0.4991757835967077
-0.8667261732561981 -0.06077183508534841 0.495068202021727
-0.8574192612962286 -0.1961649586094218 0.4757641425874723
-0.8364232217945575 -0.3215147553566152 0.4438743697610704
-0.8062461332970439 -0.4328854993799685 0.4032087759091065
-0.769815463780347 -0.5285063154427689 0.3578620212620455
-0.7299056592335867 -0.6084571267847485 0.3114765697185437
-0.6887898963399891 -0.6740636308564071 0.2668458361238258
-0.6481201356643584 -0.7272832066608604 0.2258305272887373
-0.6089636456414732 -0.7702362333215749 0.1894714310011882
-0.5719142880541311 -0.8049175701523186 0.1581826551162384
-0.5372173996895012 -0.8330589870587598 0.1319476773250784
-0.5048657978073707 -0.8560985434969369 0.1104799077966197
-0.4746362802084878 -0.8752193586677025 0.09333528659164596
-0.446019841324788 -0.8914426141691706 0.07997728920040531
-0.417864392997929 -0.9058242085184804 0.06979865561985936
-0.3877568741225707 -0.919661559810621 0.06218699202717267
-0.3558969521281197 -0.9327697072708743 0.05725410608612738
0 0 0
0 0 0
0 0 0
0 0 0
-0.2646412435176355 0.9638629069210707 0.03055010460051174
-0.2818571653519286 0.9588785430538476 0.03329381339986934
-0.3016163347409655 0.9526639124967253 0.03819759735711827
-0.3210417463041189 0.9459608134010495 0.04572019947053791
-0.3404894690118531 0.9385519451364752 0.05645500662088718
-0.3607367065378209 0.9299617625053527 0.07099400562148254
-0.3824897305245982 0.9195709734588178 0.0899490456604269
-0.4063810427360396 0.9065696274754372 0.113955950453741
-0.4329976078365101 0.8898766712052325 0.1436404596642387
-0.4628720421681771 0.8680517424805299 0.1795428777634376
-0.4964250415837148 0.8392149746526757 0.2219919016705685
-0.5338543134077121 0.8010021676048059 0.2709152995834349
-0.5749679460219799 0.7506050062018524 0.3255825328729751
-0.6189726440402108 0.6849721603265022 0.3842993696423586
-0.6642573279673606 0.601259999081978 0.4441268014268015
-0.7082636615990767 0.4975834245179335 0.5007727242005834
-0.7475832730185941 0.37398383741031 0.5488673239123136
-0.7784119889822458 0.2332998002281958 0.5827915395938648
-0.7973564943541493 0.08142592894246656 0.5979903335398633
-0.8023452397425302 -0.07346546839581623 0.5923216535092097
-0.7932197320961974 -0.2226505219873965 0.5667708546423115
-0.7716923415328411 -0.3588098577651865 0.5251156215445192
-0.7407219084318573 -0.4773353806255501 0.4727388166547442
-0.7036665768450902 -0.5765767363821863 0.4152259814775311
-0.6635876420899371 -0.6572452160718518 0.3573236169303418
-0.6228756157081091 -0.7214844065738949 0.3024668881496913
-0.5831683409833066 -0.7720242989232611 0.252770979241732
-0.545443506227187 -0.8116015057998913 0.2092710617785956
-0.5101753654877749 -0.8426489744452595 0.1722318272438835
-0.4774858327144405 -0.8671826383510762 0.1414268408028082
-0.4472560643726651 -0.8868057553961671 0.1163510424452964
-0.4191865412849481 -0.9027713729233724 0.09636644558979644
-0.3928114759804271 -0.9160626243488553 0.08079859286624852
-0.3675369059398303 -0.9274443731792136 0.06901852961626449
-0.3431817612694002 -0.9373125004371742 0.06059335983623821
-0.3229796347609384 -0.9447659785674297 0.05569022599358824
0 0 0
0 0 0
0 0 0
-0.1859171613307575 0.9822865351779672 0.02340880028486417
-0.2143660992582933 0.9764000046412433 0.02627178001892632
-0.232640604204301 0.9721032395633782 0.02989382721972262
-0.2490568227777497 0.9678313620928575 0.03568127768642849
-0.2648389046129644 0.9632730556795528 0.04433254792115458
-0.2806414979068503 0.9581479549289659 0.05650527513461839
-0.2971229013936355 0.9520530757874647 0.07288979593231974
-0.3149309525053843 0.9444249291981718 0.09423400799646998
-0.3347027249010563 0.9344781960654392 0.1213449093373502
-0.3570733563807074 0.921116656144045 0.1550571634495758
-0.3826640726868037 0.9028237639019805 0.1961567200189913
-0.4120318959967735 0.8775457402817902 0.2452410862693845
-0.4455659332791074 0.8425966765457248 0.302492710284424
-0.4833177739166185 0.7946452537337303 0.3673456820690008
-0.5247634757773183 0.7298854693026154 0.4380530746279586
-0.5685278769901667 0.6445296115387943 0.5112314866425033
-0.6121647663785933 0.5357402236527349 0.5815812166543549
-0.6521655465091093 0.4029539768517504 0.6421122896237332
-0.6843926966791974 0.2492000417753415 0.6852050612125857
-0.704993337122953 0.0816393728112277 0.7044994020006199
-0.7115187393874517 -0.08940626178054764 0.6969559554626955
-0.7036911258157522 -0.2528803232083762 0.663980678621137
-0.683372129449259 -0.3997636756262591 0.6108940467395041
-0.6537937758092852 -0.5248146058288784 0.5450902019131477
-0.6185409165495507 -0.6267096791808668 0.4739642524231717
-0.5807665338741741 -0.7070320850657336 0.4035044780660788
-0.5428230560805779 -0.7689255136534341 0.3377820069810464
-0.5062325253329503 -0.8159896455189167 0.2790869554474663
-0.4718328356139486 -0.851603973456713 0.2283515877528291
-0.4399690293136049 -0.8786223447700789 0.1856071887497143
-0.4106601122808297 -0.8993057718351576 0.1503575768808052
-0.3837168987195434 -0.9153772537426954 0.1218434444996354
-0.3588117788196546 -0.9281221985574359 0.09921336565798941
-0.3355152897837462 -0.938491295594071 0.08163074430317516
-0.3133303732086717 -0.9471816914989277 0.06834413298991797
-0.2917278121483775 -0.9546966780804231 0.05872934940321637
-0.269545339780143 -0.9615711017621331 0.05221423233912287
-0.2380282292527655 -0.9700872350149631 0.04767933032054739
0 0 0
0 0 0
-0.1560464317995608 0.9875376546591564 0.0204668452116247
-0.1688168802545152 0.9853852643898324 0.02273195250109755
-0.1817538722247228 0.9829792825976381 0.02678170859282576
-0.1939435292368747 0.9804484757996272 0.03326700721935691
-0.2056278840191815 0.9776912848017809 0.04285936229619269
-0.2172329176676738 0.9744971960218598 0.05625899418867853
-0.2292723080700405 0.9705270051064746 0.07423975425129616
-0.2423039587021732 0.9652713479111846 0.09767300803691596
-0.256918021218698 0.9579817647455734 0.1275306582278352
-0.273737377388689 0.9475703872865657 0.1648581492009103
-0.2934089002988771 0.9324786688985 0.21070061526888
-0.316566206972046 0.9105236434404275 0.2659558823175379
-0.3437455913281676 0.8787490801797906 0.3311178378245722
-0.3752346489924402 0.8333470408891255 0.4058714915300871
-0.4108397948043943 0.7697752798623166 0.4885250060313951
-0.449585463537446 0.6832630413632704 0.5753473101378273
-0.4894242027079704 0.5699073017527457 0.6600527382054949
-0.5271368123924345 0.4283827947165675 0.7339039189237009
-0.5586690105974 0.261803430096391 0.7869865949226108
-0.5800358977226142 0.07865099295840103 0.810785038502671
-0.5885468210820655 -0.1083830161992743 0.8011652521132844
-0.5837088841802638 -0.2856712646542419 0.7600499109136694
-0.5672455723949512 -0.4424161567528708 0.6946224908843239
-0.5422760927186192 -0.572864205015133 0.614624472241552
-0.512231056976565 -0.6762388038521003 0.529452948271469
-0.4800546635385664 -0.7551872186523759 0.4463628398500055
-0.447870486965871 -0.8139564943865489 0.3699822322097547
-0.416994988507211 -0.8570346562576674 0.302666115601288
-0.3881099510157618 -0.8884105358877237 0.2451476812989059
-0.3614598944107194 -0.9113042467725683 0.1971580953115364
-0.3370126497851598 -0.9281660289850131 0.1578933074040068
-0.3145692845175367 -0.9407916497544065 0.1263219576736612
-0.2938317144631072 -0.9504665430809132 0.1013719589407705
-0.2744475666132792 -0.9580961290408251 0.08203865367639729
-0.2560583752679975 -0.9643052245294955 0.06745029577571936
-0.2383756050913989 -0.9695039129509258 0.05691426596339881
-0.2213104711638262 -0.973922992112758 0.0499567892020394
-0.2060032806920375 -0.9774517864130726 0.04637513969800765
0 0 0
0 0 0
-0.1140209592661226 0.9933229635430688 0.01757017205515191
-0.1207643865321676 0.992487227751197 0.01962309089445708
-0.1288524069977396 0.9913764704194497 0.02386945976687119
-0.1366635167679351 0.9901378263369772 0.03082479588424606
-0.1439571046161875 0.988729536632767 0.04111271604354479
-0.1509382008793512 0.986986824842752 0.05544968081176554
-0.1579747648752527 0.9846159030149773 0.07466925198908175
-0.1655103392938556 0.9811513370953815 0.09974157259025543
-0.1740408928730288 0.9758812830053367 0.1317781813799855
-0.1841133868441686 0.9677369089903087 0.1720102780727112
-0.1963234686834493 0.9551425270817357 0.2217202034186641
-0.211296150563391 0.9358297827269889 0.2820931663799194
-0.2296313859684479 0.9066395004685605 0.3539410159452108
-0.2517940050146976 0.863377953887258 0.4372393941310748
-0.2779263573593538 0.8008704745030223 0.5304370112975376
-0.3075791972439808 0.7134541018312861 0.6295858019387512
-0.3394079375021775 0.5962018997399184 0.727561369718754
-0.3709811211872745 0.4469956545167006 0.8139827348081889
-0.3989451146994519 0.2689503349105077 0.8766461730989112
-0.4197369595803108 0.0717886304631003 0.9048023415633429
-0.4306963783806011 -0.1294788581611297 0.8931605986266543
-0.4309882821606678 -0.3187251457598276 0.8441939244631963
-0.421737043731564 -0.4835213072543193 0.7670365124136103
-0.4053507548142389 -0.6177951944860992 0.673809960776337
-0.3845679357442069 -0.7214675515311527 0.5758403206489472
-0.3617540148439283 -0.7983007229323095 0.4815080357689269
-0.3386128109726244 -0.8536044205304438 0.3958545913540754
-0.3162003544913439 -0.8926648721129982 0.3211958310984629
-0.2950696166888448 -0.9199807846655426 0.2580102268385306
-0.2754306374943942 -0.9390529858487525 0.2057120650277315
-0.2572778522177132 -0.9524573598515949 0.1631964595901799
-0.2404763740627725 -0.9620208780491459 0.1291779536731058
-0.2248178411037112 -0.9690071149544266 0.1023823690347344
-0.2100638940373127 -0.9742723226483817 0.08164926051843775
-0.1960050689268103 -0.9783800545632308 0.06598849739041723
-0.1825862813339232 -0.9816711817190721 0.05462545973197096
-0.17024663903979 -0.9842766818124228 0.04706905072317942
-0.1609737542997928 -0.9860117137312795 0.04322442378256137
0 0 0
0 0 0
-0.06462430328931279 0.997800560444366 0.01475604965021014
-0.06912119440816027 0.9974696833307011 0.01662802813743546
-0.07376681074909969 0.9970554640036625 0.02094896972041293
-0.07756938093018233 0.996588584014803 0.02818129438967142
-0.0804403222726893 0.995999826083823 0.03890631046063967
-0.08256457109251773 0.9951301708679896 0.0538426840764245
-0.08422359979673774 0.99370572288231 0.07386014857975798
-0.08574705683380357 0.9912862793977122 0.09999477247426729
-0.08750542625875199 0.9871841249775599 0.1334552500562004
-0.08991616152690161 0.9803456586619663 0.1756060176614204
-0.09345185778464621 0.9691884817339901 0.2279044474132981
-0.09864058349518935 0.9513932310548164 0.2917549574399798
-0.1060481328010511 0.9236696243249631 0.3682230555367106
-0.116226428768425 0.8815628430641753 0.4575351035541929
-0.1296089172357724 0.8194534949550205 0.558298753517301
-0.1463350418578945 0.731028824095535 0.6664704898687913
-0.1660114756852049 0.6105909339168489 0.7743506320520246
-0.1874821035005548 0.4554052026435167 0.8703198045961175
-0.2087741321495422 0.2685826751387924 0.9403598823644566
-0.2274168870372722 0.06083705968590156 0.9718952678447662
-0.2411483858621278 -0.1509621529575299 0.9586750671476322
-0.2486715643120016 -0.3487241825042678 0.9036337187374935
-0.2499782058987124 -0.5188260061791787 0.8175148144760577
-0.2460831004342199 -0.6550925662531785 0.7143506403164386
-0.2384543196563891 -0.7581238391017795 0.6069495712353601
-0.2285177792941807 -0.8326245577855277 0.5044957584746476
-0.2174018898628956 -0.8847418010692911 0.4122721961577173
-0.2058852660870428 -0.9203543863979525 0.33250422650895
-0.1944469952043098 -0.944315896515024 0.2654389829038698
-0.1833439399993206 -0.9603058801415991 0.2102322911233991
-0.1726787622792878 -0.9709667541154366 0.1655463906590105
-0.1624497246530077 -0.978128236321969 0.1299047353634023
-0.1525852827493617 -0.9830247798214313 0.1018823524724628
-0.142973235622726 -0.9864719702620133 0.0801979163254832
-0.1334993470172645 -0.9889960991292005 0.06375453123651589
-0.1241293763023032 -0.9909202536861689 0.05166186962682577
-0.1151394985369559 -0.9924060664485725 0.04327926931833222
-0.1078861495470967 -0.9934208305907249 0.03841395689505141
0 0 0
0.02182980353337005 0.9997183742849596 0.00930762025068649
-0.005163247708396322 0.999926213575953 0.01099582997133911
-0.01393220824419175 0.9998145806247952 0.01329277787011555
-0.01694907128223009 0.9996980681612901 0.01779048895487767
-0.01727394614817763 0.9995336802602172 0.02518000814009198
-0.01584022465666444 0.9992228609368653 0.03609378705500232
-0.01305437848771971 0.9985996166682714 0.051267814389539
-0.009180887257461664 0.9973918900405525 0.07159000621944001
-0.00444823136848218 0.995164203330948 0.09812452112683703
0.0009125220365370657 0.9912330663528011 0.1321218205761478
0.006644477821986863 0.9845451215867767 0.175005012711498
0.01244464872213159 0.9735088315902362 0.228310502461002