# OOMMF: rectangular mesh v1.0
# Segment count: 1
# Begin: Segment
# Begin: Header
# Title: 
# Desc: time = 3.9599999999999996e-09
# Desc: stepsize = 2.958965608278843e-14
# Desc: step = 25342
# meshunit: m
# valueunit: (none)
# valuemultiplier: 384000.0000000001
# xmin: 0
# ymin: 0
# zmin: 0
# xmax: 9.357999999999999e-08
# ymax: 9.357999999999999e-08
# zmax: 2.3395e-08
# ValueRangeMaxMag: 1
# ValueRangeMinMag: 0
# meshtype: rectangular
# xbase: 1.16975e-09
# ybase: 1.16975e-09
# zbase: 1.16975e-09
# xstepsize: 2.3395e-09
# ystepsize: 2.3395e-09
# zstepsize: 2.3395e-09
# xnodes: 40
# ynodes: 40
# znodes: 10
# End: Header
# Begin: Data Text
0 0 0
0 0 0
0 0 0
0 0 0
0 0 0
0 0 0
0 0 0
0 0 0
0 0 0
0 0 0
0 0 0
0 0 0
0 0 0
0 0 0
0 0 0
0 0 0
-0.986761328873072 0.1616890828385809 0.01259842575351962
-0.9913600245598106 0.1304631163878193 0.01358959039666205
-0.9959957441461947 0.08826414133159298 0.01420982046557537
-0.9990208822544682 0.04181428050286849 0.01445139320379914
-0.9998780254881126 -0.00582979800303587 0.01448956870429371
-0.9985199065729471 -0.05240222317760565 0.01456032910331731
-0.9953860953295511 -0.09478125753942264 0.0149343377434263
-0.9918914396457345 -0.1261044095610096 0.01578131321470527
0 0 0
0 0 0
0 0 0
0 0 0
0 0 0
0 0 0
0 0 0
0 0 0
0 0 0
0 0 0
0 0 0
0 0 0
0 0 0
0 0 0
0 0 0
0 0 0
0 0 0
0 0 0
0 0 0
0 0 0
0 0 0
0 0 0
0 0 0
0 0 0
0 0 0
0 0 0
0 0 0
0 0 0
-0.9281479757002766 0.3719191644508863 0.01474687484291001
-0.9393880736193742 0.3424857221389577 0.01592410979105238
-0.9534074380417483 0.3012423632139112 0.0163491801619268
-0.9674974132861681 0.2523825697382929 0.01586801111886618
-0.9811654284510036 0.1925871635963524 0.01498620800834946
-0.9895479681081644 0.1433758951759955 0.01543280582021919
-0.9954099686765148 0.09436373138124146 0.01595244367575061
-0.9988882685341042 0.04425596643502948 0.01623688454847379
-0.9998466319641338 -0.006385845819182234 0.01630746832438451
-0.998258343130064 -0.0567006187366063 0.01628865267923246
-0.9942220065190668 -0.1060991922935459 0.01629610836541451
-0.9876483832582995 -0.1558443786218015 0.01622346138316918
-0.9762094108998178 -0.2162955392741645 0.01521268420524445
-0.9638509316887771 -0.266091831779753 0.0136571791659607
-0.9512062124658373 -0.3082904271377723 0.01279663633951707
-0.9409152239937284 -0.3383894585942097 0.01308111498110058
0 0 0
0 0 0
0 0 0
0 0 0
0 0 0
0 0 0
0 0 0
0 0 0
0 0 0
0 0 0
0 0 0
0 0 0
0 0 0
0 0 0
0 0 0
0 0 0
0 0 0
0 0 0
0 0 0
0 0 0
0 0 0
0 0 0
-0.8789867312712172 0.4766494951082773 0.01369616961653427
-0.8940178142187342 0.4477892733871205 0.01472801748338934
-0.9158028490133541 0.4013265326730129 0.01556135957043113
-0.9332170271738088 0.3589175428171728 0.01685756954488863
-0.9494633842267147 0.3133714815255773 0.01782123955335719
-0.9644597172158104 0.2635944215264331 0.0183148794192994
-0.977664202133338 0.2093432238068888 0.01865804151356029
-0.9875937749465511 0.1558402834306128 0.01929615886871505
-0.9945702588381332 0.1021476661844241 0.01989609327792129
-0.9986468191012725 0.04790436336019523 0.02024111335781364
-0.9997718895021287 -0.006690116612246437 0.02028327638861832
-0.9979203536246709 -0.06125907418888604 0.02005725931257104
-0.9931039727954345 -0.1155884027580334 0.01959133394567108
-0.9852621533833692 -0.1700143515336782 0.01880450432605264
-0.9741027172027791 -0.2254278703520584 0.01749776004800108
-0.9608685860884274 -0.2765452059628397 0.01594707896124684
-0.9461139872848431 -0.3234964331750214 0.01477771250952198
-0.9300031399312713 -0.3672751605458812 0.01425188282203503
-0.9097090974403265 -0.4150110674083493 0.01397039594601442
-0.8955656631892361 -0.4447057295661747 0.01410521206644278
0 0 0
0 0 0
0 0 0
0 0 0
0 0 0
0 0 0
0 0 0
0 0 0
0 0 0
0 0 0
0 0 0
0 0 0
0 0 0
0 0 0
0 0 0
0 0 0
0 0 0
0 0 0
0 0 0
-0.8416575815529759 0.5398285122954392 0.01406032457974817
-0.8628771110365462 0.5051980582882823 0.01476526840164681
-0.8836121213767599 0.4679380009552518 0.01623718627300367
-0.9051928860931316 0.4246225590645873 0.01793101502501885
-0.9251168244248326 0.3791653032282584 0.01981247066712939
-0.9434519386055578 0.3308068470654589 0.02157010607355005
-0.9599658229390146 0.2791658101499169 0.0230666259422634
-0.9741927800672355 0.2243991848835684 0.02436048210647755
-0.9854465819901392 0.1680586561823836 0.02552101342271877
-0.9935162593647177 0.1105806706776921 0.02640753018383427
-0.9982712035080636 0.05226926619920557 0.02687988202277443
-0.999617768714733 -0.006487453514885208 0.02687432634821389
-0.997519848829366 -0.06525178479127203 0.02638855382531349
-0.9920039510156272 -0.1236159503960781 0.02544126524091527
-0.9831460512567957 -0.1812342725015742 0.02404122228578053
-0.97110865751054 -0.2376004514583153 0.02222612820265338
-0.9564881495331433 -0.2910696593104419 0.02022061402544431
-0.939743785064069 -0.3413857075596729 0.01836891688254104
-0.9211541741547998 -0.3888321004036845 0.01686965123667179
-0.9007524151459771 -0.4340482876622117 0.01572165977849071
-0.8809675888028009 -0.4729371731778467 0.01505116957334306
-0.8607879850259662 -0.5087476727039423 0.01482735152543392
0 0 0
0 0 0
0 0 0
0 0 0
0 0 0
0 0 0
0 0 0
0 0 0
0 0 0
0 0 0
0 0 0
0 0 0
0 0 0
0 0 0
0 0 0
0 0 0
-0.7681141100902584 0.6401357857829812 0.01506285631130583
-0.7885686827098777 0.6147449570395698 0.01575025217654653
-0.8196741311572181 0.5726082655039765 0.0159402944824315
-0.845508593931804 0.5336798537586753 0.01735025301204377
-0.8696848405760652 0.4932194216447737 0.01956732441030522
-0.8931658135199027 0.4491787151192151 0.02221061555159153
-0.9153286618434801 0.4019274397111003 0.02505541887702324
-0.9358230685523636 0.3513670110047388 0.02786409773944346
-0.9542485042734832 0.2974589012125099 0.03046299691864994
-0.9701125038267175 0.2404349250261153 0.03275327077930899
-0.9828738458666856 0.1809938453174392 0.03464435117644964
-0.9921526769791023 0.1197379718364321 0.03599838418176859
-0.9976853818475803 0.05725194813170077 0.03668914393621783
-0.9993112026157446 -0.005848316934953851 0.03664583899574424
-0.9969773763326645 -0.06892173739567516 0.03585952028677732
-0.9907435768586658 -0.1313233465634618 0.03437067879267668
-0.9807842652579092 -0.1924097068007541 0.03226034332350002
-0.9674049201996704 -0.2514909282376752 0.02966535669128239
-0.9510861370228405 -0.3077603890950564 0.0268086341880658
-0.9323070349274658 -0.3608736589447067 0.02395401646104193
-0.9114966387918745 -0.4107554497032714 0.02130347413399337
-0.8890676957951532 -0.4573827340847425 0.01896488477849992
-0.8657089029275107 -0.5002592561564165 0.016993293438109
-0.8406560638852653 -0.541354083355531 0.01526887969776397
-0.8106164233627653 -0.5854248215195844 0.01337133214455797
-0.7907063873287099 -0.6120668315103508 0.01255399547789715
0 0 0
0 0 0
0 0 0
0 0 0
0 0 0
0 0 0
0 0 0
0 0 0
0 0 0
0 0 0
0 0 0
0 0 0
0 0 0
-0.7211352870054524 0.6926521808043583 0.01403047620467848
-0.7462417012147585 0.665502327589147 0.01516493790063667
-0.7716924689573506 0.6357750184631891 0.0167588559466128
-0.7997655188538322 0.6000223820408254 0.01866161575304135
-0.8269905643957756 0.5618102953701323 0.021349435975701
-0.8534334254905199 0.520613056088104 0.02476760154155159
-0.8791208009966731 0.4757349626726599 0.02868558079959697
-0.9036341869798631 0.4270427934745403 0.03285892059551382
-0.9264949476444402 0.3744803481243758 0.03703486003715717
-0.9471699074548735 0.318103840298954 0.04097698377117586
-0.9650754049956194 0.2581696781544037 0.04447336229915886
-0.9796214849715371 0.1951979884354098 0.04732326587345199
-0.9903065276201303 0.1298428434048094 0.0493337345992922
-0.996751599272675 0.06285800155892161 0.05034998497897192
-0.998722731050123 -0.004928096145524895 0.05028538905252265
-0.9961466565357714 -0.07264752277347973 0.04913426612335003
-0.9891169948482914 -0.139432405029903 0.04696993644727942
-0.977889943246835 -0.2044524057490253 0.0439371446516154
-0.9628708628262758 -0.2669456713481605 0.04024562173283269
-0.9445868663412248 -0.3262640299678066 0.03615846629533544
-0.9236030485836716 -0.3820161681915588 0.03195396512463019
-0.9004763062383637 -0.4340109962539504 0.02787251395130126
-0.8757454433583778 -0.4821718249974339 0.02408837096362585
-0.8499193001692843 -0.526505812285363 0.02070779634541724
-0.8231113692848722 -0.5676020962558832 0.01776327897402775
-0.7954002365824991 -0.6058908855540778 0.01531987098506844
-0.770202065945414 -0.6376492536346569 0.01386387220731023
-0.7455921214122457 -0.6662654951146634 0.0135158613339622
0 0 0
0 0 0
0 0 0
0 0 0
0 0 0
0 0 0
0 0 0
0 0 0
0 0 0
0 0 0
0 0 0
-0.6678002338231476 0.7442193307016889 0.01343262877024629
-0.6946532715814848 0.7191981477499038 0.01452090060039922
-0.7214170277290873 0.6923039957380073 0.01651210427891675
-0.7488380088544841 0.6624729828204228 0.01926612384115395
-0.7773620042339161 0.6286427268983484 0.02272963464811719
-0.8060523409259066 0.5912279677730146 0.02700210752620626
-0.8345632632435001 0.5499800518159397 0.03203283079741689
-0.8625860427707099 0.5045083088592269 0.03763887762897618
-0.8896382226736163 0.4545831129408899 0.0435663423653931
-0.9151306803812859 0.4001046964135277 0.04951837772709161
-0.9383959736234704 0.3411283042435692 0.05517677710020254
-0.9587154266811638 0.2779180993477743 0.06021844151482137
-0.9753697106902615 0.2109872351089989 0.06432972943402678
-0.9877139986974606 0.1410720155351783 0.06722903546768055
-0.9952417542027758 0.06909430954246211 0.06870099766547126
-0.997634703129316 -0.003892039470573968 0.0686283552246478
-0.9947945019314759 -0.07676972796931765 0.06700975894914753
-0.9868518458057415 -0.1484334845109164 0.06396041827371129
-0.9741516845071393 -0.2178636982477545 0.05969844686181911
-0.9572165023817079 -0.2841901065297477 0.05452110525970353
-0.9366911590007996 -0.3467433232430419 0.04877233269087718
-0.9132720757443168 -0.4050952570595185 0.04280126602740671
-0.887653518520014 -0.4590294737916446 0.03692117616767044
-0.8604936567573125 -0.5084935470533627 0.03138437964206418
-0.8323789335599895 -0.5535788198516759 0.02637804346724374
-0.8037519274022535 -0.594556171325473 0.02204083337708462
-0.7750978054126267 -0.6315697918291631 0.01851999172238019
-0.7474687465611107 -0.6641035877292615 0.01602802793498017
-0.7206410274852512 -0.6931541227851103 0.01462434856684597
-0.6941464015512704 -0.7196943452197849 0.01417119162551039
0 0 0
0 0 0
0 0 0
0 0 0
0 0 0
0 0 0
0 0 0
0 0 0
0 0 0
-0.6136779266349837 0.7894571258920982 0.01252392666756926
-0.6392340876479546 0.7688880647210075 0.01381756557683563
-0.6656749521228417 0.7460709764217996 0.01596734972605536
-0.6931979348705183 0.7204938530212748 0.01911101383511745
-0.7218271092775738 0.691682381397548 0.02326171911527825
-0.7515120614398825 0.659107223721237 0.0284128342278766
-0.7818491527336102 0.6225090348434581 0.0345601491316437
-0.8124754589366396 0.5815081666775845 0.04161587092649303
-0.8429721382378252 0.5356855645841267 0.04938572719858635
-0.8727785522603317 0.4847082140594411 0.05758077750140042
-0.901196389994271 0.4283817825909224 0.06583399581915811
-0.9274123867943391 0.3667036651919328 0.07372032796474323
-0.9505368047824326 0.2999233169849245 0.08078234140431448
-0.969666739914373 0.228589153225746 0.08656449925556915
-0.9839725562820107 0.1535549175405466 0.09065812585179794
-0.9927885880596663 0.07594586649878432 0.092752599857052
-0.9956916464267852 -0.002914983855837285 0.09268035447190194
-0.9925520398568487 -0.0816118420485703 0.09044310594758999
-0.9835467107407077 -0.1587553403208213 0.08621258441059637
-0.9691322366434286 -0.2330956652657463 0.08030640530383704
-0.9499842434331337 -0.303611100321836 0.0731453142049454
-0.9269164345752816 -0.3695603165962837 0.06520042723404131
-0.9007955516619075 -0.4304942040324519 0.05693956796977308
-0.8724718998011077 -0.4862232208122179 0.04878282075114591
-0.8427303887596892 -0.5367664859416209 0.04107592276292556
-0.8122559876849444 -0.5823044493973072 0.03408428790592016
-0.7816175976928049 -0.6231288811325092 0.02800586501923106
-0.7513394233817111 -0.6595151100225505 0.02299761997207815
-0.7219923819050237 -0.6916348751775478 0.01918853588077375
-0.6938310768959808 -0.7199456486693334 0.01663429275489843
-0.6670606576795259 -0.7448457335784358 0.01532684397256733
-0.6417357718218515 -0.7667740099875037 0.01525833450595352
0 0 0
0 0 0
0 0 0
0 0 0
0 0 0
0 0 0
0 0 0
0 0 0
-0.5870643627917291 0.8094297649281987 0.01337496124187094
-0.6075338093731465 0.7941461160043661 0.01531720939768883
-0.6332232326389513 0.7737478989849674 0.01850747045450925
-0.6611827519299917 0.7498731445321604 0.02297032128055767
-0.6907466000980708 0.7225254111317716 0.02874308128610299
-0.7216763824163729 0.6913024695828581 0.03583426587859613
-0.7536970623396376 0.6557332890811846 0.04421076578585344
-0.7864734518703996 0.6152801644263426 0.05375712758834864
-0.8195528000026449 0.5693904450221238 0.06424740559222705
-0.8523129491542661 0.5175782919590404 0.07533490822134736
-0.8839489022998652 0.4595025243316531 0.08655500133268641
-0.9134879561386507 0.3950498398012933 0.09734155362743205
-0.9398345409765235 0.3244211426577142 0.1070605332702475
-0.9618503182711681 0.2482021655982218 0.1150636790390646
-0.9784665988080166 0.1673918578755687 0.1207604278480199
-0.9888115125137323 0.08337046064635421 0.12369785370781
-0.9923258651036748 -0.002198649199534927 0.1236306733296397
-0.9888401235781934 -0.08752100918562734 0.1205623612616799
-0.9785931431219606 -0.1708477121107664 0.1147454552529128
-0.9621889188413133 -0.2506395038860876 0.1066410969125857
-0.9405045682196963 -0.325686020970362 0.09684922768083842
-0.9145740459876845 -0.3951628241922616 0.08602707005420741
-0.8854741140669476 -0.4586268111297617 0.07481337734856999
-0.8542331062618645 -0.5159641472293707 0.06377145866352277
-0.8217698222915427 -0.5673159295728437 0.05335724153126275
-0.7888608828906231 -0.6130010347985475 0.04391171575942172
-0.7561378955725263 -0.6534393501139468 0.03567209836572271
-0.724126084599742 -0.6890663239445475 0.02879261724460466
-0.6932965641980738 -0.7202736266880831 0.02336186569478944
-0.6640957991018613 -0.7473954770571618 0.01941057674973288
-0.6374065786497758 -0.7703413674692235 0.01694199101738477
-0.6163872262381555 -0.7872813818855093 0.01596286524642064
0 0 0
0 0 0
0 0 0
0 0 0
0 0 0
0 0 0
0 0 0
-0.5104353277220859 0.8597869598693355 0.01490502773870517
-0.5430408010058323 0.8395664276635095 0.01532651243030515
-0.5693118838692163 0.8219286286541486 0.01781314918799574
-0.5962997115231403 0.8024580927430266 0.02208310278567819
-0.6249109130323739 0.7801925022868841 0.02803587252743121
-0.6552591278348965 0.7545609971444245 0.03568160558974339
-0.6873054826688877 0.7249710032590709 0.04503574054929053
-0.7208978120953724 0.69076989333921 0.05606513151898154
-0.7557589797123903 0.6512423112443299 0.06864267352915246
-0.7914433335482522 0.6056481450938457 0.08250923661271559
-0.827289403042248 0.5532949701071572 0.09724669489561442
-0.8623927375727592 0.4936345901953115 0.1122660124190224
-0.8956098425126162 0.4263806204617053 0.1268170985680459
-0.9256045891027523 0.3516362886727971 0.1400288010387357
-0.9509468904541271 0.2700066659324726 0.150984806810672
-0.9702619124250754 0.1826583354711376 0.158832470799103
-0.9824086808922899 0.09129186348891283 0.1629078861448756
-0.9866491741890492 -0.001989076969965573 0.1628479371833552
-0.9827627671546421 -0.09489628699477223 0.1586569828565887
-0.9710729043761365 -0.1852157562411996 0.1507067948915863
-0.9523799831346341 -0.2710438014170018 0.1396697012164566
-0.9278238308326489 -0.3509479183224753 0.126406081990341
-0.8987167760048986 -0.4240287382204266 0.1118382121215873
-0.866388034921435 -0.4898916281761667 0.09683989667424237
-0.8320662215363637 -0.5485577077246984 0.0821598702166846
-0.7968084576231486 -0.6003498687688044 0.06838360132003624
-0.7614718726384633 -0.6457806458002771 0.05592803134608201
-0.7267197641792973 -0.6854546729074277 0.04505858120888247
-0.6930537692211618 -0.719990617011017 0.03591635260483886
-0.6608501508254165 -0.7499748703308711 0.02854421178131734
-0.63037246311229 -0.7759548829389132 0.02290365457741261
-0.6017400566605468 -0.798468953101934 0.01887419249829887
-0.5743220058995865 -0.8184693853403413 0.01618946571319303
-0.5415643098994293 -0.8405368516040923 0.01434919296108704
0 0 0
0 0 0
0 0 0
0 0 0
0 0 0
-0.4464141989873576 0.8947132274305167 0.01423388925570204
-0.4746481105361779 0.8800449607533699 0.01516701081409982
-0.5019953182981921 0.8647012265996157 0.01710231340538424
-0.5282863277793952 0.848811121154843 0.02081433364822101
-0.5554166363256205 0.8311504591572565 0.02648158483577798
-0.5842066328292317 0.8108849027433233 0.03418017936291956
-0.6149690084186367 0.787323239635531 0.0439913061230317
-0.6478095130856372 0.7597428979155293 0.05597824419060435
-0.6826900861385893 0.7273338526586224 0.07014066627036333
-0.719414228472002 0.6891911693657226 0.0863637652047502
-0.7575777756571074 0.6443473391188248 0.1043667590802703
-0.796509333005302 0.5918462062462259 0.1236565832756107
-0.8352222530170694 0.5308602754363497 0.1434961882027965
-0.8723992136306562 0.4608499526418202 0.1629016059056638
-0.9064325132963561 0.3817500438265304 0.1806848164005283
-0.9355400836490491 0.2941473102681262 0.1955559044057638
-0.957961131623585 0.1993925743539209 0.2062839586370593
-0.9722057425642155 0.09958718540952978 0.2118923939818738
-0.9773008749237707 -0.002590813023554359 0.2118402406558031
-0.972960136854474 -0.104202047266351 0.2061322522984304
-0.9596219347833366 -0.2024262428857286 0.1953186075975691
-0.9383462457580301 -0.2949031451909282 0.1803841956167681
-0.9106101599611678 -0.3799489656178682 0.1625666635611612
-0.8780694749899305 -0.4566170175135255 0.1431603870068809
-0.8423484497313274 -0.5246261752949225 0.1233550381243113
-0.8048933888986265 -0.5842112852713985 0.1041336000953787
-0.7668965943308594 -0.6359511498091152 0.0862307871945554
-0.7292784402842603 -0.6806126786596205 0.07013799387159962
-0.6927088360689347 -0.7190293558198128 0.05613603033138526
-0.6576488299042396 -0.7520186898637333 0.04433854554693883
-0.6243908110861262 -0.7803394834842596 0.03473334920113823
-0.5930724004028201 -0.8046890972551343 0.0272136847772101
-0.5636202962212766 -0.8257516454775236 0.02159587179537889
-0.5354653682540557 -0.8443731387077917 0.01763071267136507
-0.5069773232034138 -0.8618274589485823 0.01508060873207796
-0.4784443531057367 -0.8780055603892382 0.01404410576762877
0 0 0
0 0 0
0 0 0
0 0 0
-0.4167188660343761 0.9089256001502425 0.01412940488995657
-0.4357830775363186 0.8999116022350416 0.0158813568606262
-0.4591654279846618 0.8881448302828362 0.01912773341338826
-0.4840212479071376 0.8747199928708586 0.02425624963636695
-0.5104245186733446 0.8593433535208816 0.03155648105490869
-0.5387891530542742 0.8414302436052196 0.04124795385856102
-0.5694351919605938 0.8202920802182861 0.05352069962134193
-0.6025643148416318 0.7951230106950972 0.06852477174422782
-0.63825142826972 0.7649721103728536 0.08632951212282076
-0.6764053872139857 0.7287355868285684 0.1068653200880411
-0.7167017692783785 0.6851834943054863 0.1298543531983626
-0.7585000909314853 0.6330353669395516 0.1547379599860197
-0.8007648755322222 0.5710988014473845 0.1806149858102172
-0.842018608917128 0.4984780655637738 0.2062141614658456
-0.8803633053123423 0.4148397698390509 0.2299313289210718
-0.9136076158375758 0.3206881672115046 0.2499604442588981
-0.9395164435606398 0.2175643867254241 0.2645271061875451
-0.9561552413221029 0.1080669095806509 0.2721923906834244
-0.9622455934657587 -0.004376215061275937 0.272147508894472
-0.9574164849490876 -0.1159642322946916 0.2643973736178853
-0.9422591322177207 -0.223086502364089 0.2497601653892476
-0.9181695196787432 -0.322816500173541 0.2296829126178334
-0.8870468098997634 -0.4131999148122744 0.2059460789764686
-0.8509569224582417 -0.4932979525251047 0.1803592142224422
-0.8118545353581653 -0.5630395329946444 0.154527336428057
-0.7714084915463265 -0.6229779785731996 0.1297203815253039
-0.7309294409505818 -0.6740385974679722 0.106836891919777
-0.6913729843061556 -0.7173094318013951 0.08643249169356959
-0.6533860888012264 -0.7538937176292396 0.06878140359282843
-0.6173693713361634 -0.7848215269894503 0.05394654863786177
-0.5835345216095119 -0.8110096133247888 0.04184338878166961
-0.5519424231946974 -0.8332567640055369 0.03229127927143468
-0.5225167028507925 -0.8522608730590868 0.02505393171737574
-0.4950755321378898 -0.8686224470249477 0.01988119721687494
-0.4697627043164281 -0.8826370388967313 0.01657887815641906
-0.4495996401619963 -0.8931026556673322 0.01509337623468699
0 0 0
0 0 0
0 0 0
-0.3400810170908792 0.9403021254204217 0.01329717053624025
-0.3689848803018204 0.929322949018268 0.01445733504627787
-0.3905866593193267 0.9204077038602431 0.01707981956820645
-0.4125778945550948 0.9106679839546459 0.02152449591663663
-0.4359217929173292 0.8995455347180727 0.02810731983873456
-0.4610461566551126 0.8865973322848337 0.03717003926504273
-0.4883597866368974 0.8712631804183738 0.04904272874977011
-0.5182302153489345 0.8528405249927109 0.06403501252871964
-0.5509571303608664 0.8304542208633467 0.08241375828568044
-0.5867400528755685 0.8030229093222 0.1043566838074304
-0.6256214250274486 0.7692389816864577 0.1298815675937339
-0.6674000607120081 0.7275813560191779 0.1587530451200897
-0.7115199164396274 0.6763854347843853 0.1903737169918238
-0.7569509586179313 0.61399831246368 0.2236768171696553
-0.802095548777591 0.5390416875066826 0.2570540599973521
-0.8447727686210488 0.4507792268216262 0.2883696552385916
-0.8823424953161496 0.3495324193702471 0.3151171349965778
-0.9120109332803366 0.2370194793563968 0.3347503905640012
-0.9312948946437368 0.1164461197976075 0.3451523147750741
-0.9385287251065114 -0.007785819877197908 0.3451133337887505
-0.9332330779073759 -0.1307406654893737 0.3346384626532352
-0.9161939825419128 -0.2477844113381298 0.3149467762206894
-0.8892263042538938 -0.355300546850389 0.2881633238820916
-0.854735626267046 -0.4510658015532656 0.2568397396412598
-0.8152531031918963 -0.5342440952595192 0.2234851771736107
-0.7730792528971786 -0.6051106924312585 0.1902354295216903
-0.7300880038547843 -0.6646704812132489 0.1586967486468565
-0.6876723322826108 -0.7142998453272444 0.129932653241857
-0.6467820853550593 -0.7554766846337799 0.1045366588260427
-0.6080050731514821 -0.7896100356006289 0.08273948695051073
-0.5716564578171813 -0.8179526025794757 0.06451692932382035
-0.537856232249674 -0.8415713895428664 0.04968168408048571
-0.506586248417305 -0.8613534748999701 0.0379547650793238
-0.4777286663610463 -0.8780280118178175 0.02901950723471932
-0.4511017416436725 -0.8921872545170167 0.02256372228673123
-0.4264928203911721 -0.9043056819768007 0.01830594710075878
-0.4031660415451674 -0.9149876431525585 0.01596107211079573
-0.3737584602150285 -0.9274018948894278 0.01517691579963252
0 0 0
0 0 0
-0.3099631306576245 0.9506591467859322 0.01304010219158793
-0.3252011121897175 0.9455254776657102 0.0150268997334979
-0.3431505606573991 0.9390955997003437 0.01863189050965555
-0.3627240463833477 0.9315813617928802 0.02423700755896151
-0.3839749741556155 0.9227797258351205 0.03226138264013923
-0.4071832644791653 0.9123273117081784 0.04313543136932566
-0.4327298966448635 0.8997008184068731 0.05729985957860259
-0.4610255905955071 0.8841951954499848 0.07519482135909589
-0.4924643145147302 0.8648843863203824 0.09723115359159246
-0.5273765834536616 0.8405732592028401 0.1237357472109716
-0.5659610103747165 0.809756135948694 0.1548648928229699
-0.6081816876759509 0.7706048354251889 0.190481553949323
-0.653628601821524 0.7210202562951014 0.2299987845467562
-0.7013527129889542 0.6587928257178965 0.2722065112477329
-0.749711354591034 0.581918185531906 0.3151255466390028
-0.796292061330814 0.4890871603264321 0.3559672775204898
-0.8380092903753289 0.3802942979040918 0.391301260189986
-0.8714563348719383 0.2573909067883378 0.4175090148897924
-0.8935096608340715 0.124306301668757 0.4314955728180972
-0.9020336838306683 -0.01331098923500646 0.4314603699072014
-0.8964120287849157 -0.1490487059062255 0.4174086222365207
-0.8776614474906143 -0.2769684509343637 0.3911506880675247
-0.8480861689843561 -0.3926368904189115 0.3557894352838561
-0.8106581759344481 -0.4935998991125625 0.3149483471725177
-0.7683939642028803 -0.5792704684833607 0.272059626037474
-0.723917518231828 -0.6504494101912039 0.2299108339747944
-0.6792583964380006 -0.7087496600805836 0.1904782145131884
-0.6358346190684115 -0.756107976717136 0.1549679474563879
-0.5945393312167629 -0.7944534099318907 0.123962748775247
-0.5558637422044634 -0.8255244774082953 0.09759527295012728
-0.5200155863071337 -0.8507952681777159 0.07570470027716783
-0.487015311324425 -0.8714681317187938 0.05796017541491364
-0.4567676401803109 -0.8884996659792326 0.04395072739900481
-0.4291173190380904 -0.9026366172804628 0.03324851344112224
-0.4039086005770074 -0.9144451665609534 0.02545348175069749
-0.3810733674152519 -0.924323586115756 0.02022366922465016
-0.360776356417145 -0.9324921502952244 0.01728612993579324
-0.3443218434874473 -0.9387089428201372 0.01637036245492598
0 0 0
0 0 0
-0.2677348772155239 0.9633917706216766 0.01394029486125344
-0.2782318310726851 0.9603765944983045 0.01624330378276545
-0.2928306603815737 0.9559436974607962 0.02053902688718574
-0.3096223858518279 0.9504717106796122 0.0271570502299609
-0.328251935244705 0.9438830564463127 0.03654371028880945
-0.3488811774701166 0.9358746185175701 0.04919982135797745
-0.3718713584939108 0.9259582723895212 0.0656732101035532
-0.3976689142287397 0.9134383014700483 0.08654423183348106
-0.4267489714791404 0.8973590395267513 0.1123924798245918
-0.4595652601687372 0.8764360155435705 0.1437347637287191
-0.4964789832552601 0.8489850701199892 0.1809225522127615
-0.5376481824830729 0.8128741052392217 0.2239868766338383
-0.5828665931631749 0.765540034683303 0.2724242828226597
-0.6313552070893723 0.7041359241885695 0.3249356901730621
-0.6815387640138965 0.6258880095484474 0.3791689763811019
-0.7308866320091454 0.5287213313201149 0.4315767428365581
-0.7759487394011618 0.4121166171391602 0.4775598891233662
-0.8127263561664901 0.2779733124304924 0.5120612341983706
-0.8374182166523462 0.1310518740724712 0.5306186358590287
-0.8473608174521617 -0.02144369165147439 0.5305844071730343
-0.8417683286323526 -0.1712270186425877 0.511964245820219
-0.821895429022939 -0.3107434719773272 0.4774163784105803
-0.7905550453055159 -0.43463465874206 0.4314109801131239
-0.7512785816466614 -0.5403075387789661 0.3790095728310779
-0.7075185126447711 -0.6276263813534076 0.3248117604000159
-0.6621423345032913 -0.6981305013658001 0.2723625009454629
-0.6172485630320248 -0.7542040787330646 0.2240098637500351
-0.5742066395724961 -0.7984411160798447 0.181048389178234
-0.5338018463168011 -0.8332623654379455 0.1439771482337847
-0.4964007340733717 -0.860738775559441 0.1127611256588517
-0.4620946075288219 -0.8825483877321144 0.08704548813252111
-0.4308084499404586 -0.9000038103162386 0.06631154406399296
-0.4023796062726246 -0.9141074701570862 0.04998185129523187
-0.3766207322862348 -0.9256087129917283 0.03748779062542474
-0.3533928825119492 -0.9350464475652167 0.02831274422523762
-0.3327407078268727 -0.9427611908541139 0.02202177046025932
-0.3152385292132431 -0.9488363535402911 0.01828233846734013
-0.3030715754673763 -0.9528193146627418 0.01682182360342416
0 0 0
0 0 0
-0.217897281163337 0.9758479513433468 0.01554190209138466
-0.2270837869956657 0.9737117307224012 0.01784430265637661
-0.2393418684697297 0.970672246798242 0.0226021966425977
-0.2533450190633635 0.9669081592246909 0.03008177090038548
-0.2689389738937539 0.962296372725879 0.04071264373127953
-0.2863496096849877 0.95654251643865 0.05504829950570247
-0.3059645864434444 0.9491827945592877 0.07374072385807208
-0.3282618225001417 0.9395394917035381 0.09751779026589111
-0.3537739089475632 0.9266486114512623 0.1271470496842451
-0.3830504069447111 0.9091659504176709 0.1633697044761467
-0.4165956865188934 0.8852613739533193 0.2067857194298795
-0.4547625015355735 0.8525246375463381 0.2576680220236726
-0.4975835916862645 0.807931165337036 0.3156862387905673
-0.5445337398426362 0.7479525720769261 0.3795391364490652
-0.594244176017875 0.6689325349766484 0.4465457679998224
-0.6442500268124819 0.5678463467416291 0.5123401501388518
-0.6909315874620794 0.4434530508657718 0.5709316361220226
-0.7298558208493713 0.2975746084079856 0.6154346701341452
-0.7566289181409701 0.1358779930750993 0.6395700518557039
-0.768072842440029 -0.03257261808379916 0.6395335278601589
-0.7632002146750128 -0.1972111960723883 0.6153317612993108
-0.7434428294632779 -0.3485710727825363 0.5707810145220904
-0.712027097910807 -0.4803129491436125 0.5121688029601948
-0.6729090534210305 -0.5898599336065458 0.4463839877837168
-0.6298188685204408 -0.6777697010151659 0.3794159000904466
-0.5857163636218973 -0.7465362703097739 0.3156262639539258
-0.5426506802418697 -0.7994534075037091 0.2576906836960621
-0.5018676197884059 -0.8398327930862742 0.2069052243536317
-0.4640095717096292 -0.8705926384261827 0.1635957679158712
-0.4293133722964205 -0.8941126656559081 0.1274855657757403
-0.3977674788655174 -0.9122404585172825 0.09797131519555882
-0.3692232328087611 -0.9263651519041297 0.0743088803029994
-0.3434699732152653 -0.937508791969658 0.05572829155013372
-0.3202897044692746 -0.9464102106432151 0.04149961929041118
-0.2995124236505025 -0.9535897196420879 0.03096699326581845
-0.2811117724940949 -0.9593857229440617 0.02356280917734373
-0.2654594479590593 -0.9639384573267172 0.01881307991423581
-0.25419748252178 -0.967013716265562 0.01637413917906873
0 0 0
-0.1276019799611137 0.9916937030549049 0.01616582912358976
-0.1573907580917664 0.9873968422657603 0.01660196226063527
-0.1716270438507907 0.9849748343358282 0.01920243589094332
-0.1829393568483649 0.9828194856594343 0.0244755045715281
-0.1942339756482355 0.9804085319692136 0.03274558208142667
-0.2064234982660498 0.9774508602329722 0.04448769710187215
-0.2200108719248856 0.9736301395825681 0.06032882835991644
-0.2354503940939381 0.9685025158122212 0.08103078912614906