# OOMMF: rectangular mesh v1.0
# Segment count: 1
# Begin: Segment
# Begin: Header
# Title: 
# Desc: time = 3.24e-09
# Desc: stepsize = 2.954911803181387e-14
# Desc: step = 20734
# meshunit: m
# valueunit: (none)
# valuemultiplier: 384000.0000000001
# xmin: 0
# ymin: 0
# zmin: 0
# xmax: 9.357999999999999e-08
# ymax: 9.357999999999999e-08
# zmax: 2.3395e-08
# ValueRangeMaxMag: 1
# ValueRangeMinMag: 0
# meshtype: rectangular
# xbase: 1.16975e-09
# ybase: 1.16975e-09
# zbase: 1.16975e-09
# xstepsize: 2.3395e-09
# ystepsize: 2.3395e-09
# zstepsize: 2.3395e-09
# xnodes: 40
# ynodes: 40
# znodes: 10
# End: Header
# Begin: Data Text
0 0 0
0 0 0
0 0 0
0 0 0
0 0 0
0 0 0
0 0 0
0 0 0
0 0 0
0 0 0
0 0 0
0 0 0
0 0 0
0 0 0
0 0 0
0 0 0
-0.9863894533180041 0.1637831009778436 0.01452384994035138
-0.9910727384829154 0.1324161297471922 0.01551759062319052
-0.9958088375342929 0.09002279052157169 0.01614485290452101
-0.9989253559528383 0.04335199242385214 0.0163932299250906
-0.9998546919025558 -0.004524562204645861 0.01643543176496179
-0.9985454733335685 -0.05132700341171464 0.01650685935642733
-0.9954371681172676 -0.09391444177879842 0.01687963139558068
-0.991949427721497 -0.1253877081991205 0.01772725234113436
0 0 0
0 0 0
0 0 0
0 0 0
0 0 0
0 0 0
0 0 0
0 0 0
0 0 0
0 0 0
0 0 0
0 0 0
0 0 0
0 0 0
0 0 0
0 0 0
0 0 0
0 0 0
0 0 0
0 0 0
0 0 0
0 0 0
0 0 0
0 0 0
0 0 0
0 0 0
0 0 0
0 0 0
-0.9269670295440399 0.3747777835520812 0.0165450625289743
-0.9383408655256558 0.3452560880040541 0.01773848304391955
-0.9525379440527928 0.303875753374686 0.01819317593619027
-0.9668215570324908 0.2548354003909797 0.01774811440233713
-0.9806948895186296 0.1948120842000887 0.01690519215093092
-0.9892202738568743 0.1454006266433133 0.01737548739638
-0.9952036623465346 0.09617062831455203 0.01791314326488759
-0.998783447938669 0.04582579166455107 0.01821046243401224
-0.9998199344642619 -0.005065351734079196 0.01828772428948772
-0.998284140694132 -0.05563293703813516 0.01826884657248063
-0.9942746881364101 -0.1052808599180178 0.01826978560812186
-0.987703460799788 -0.1552778434822097 0.01818419224588473
-0.9762318603204013 -0.2160491553976854 0.0171498497752676
-0.963817167198705 -0.2661093884141506 0.01556475540796433
-0.9511052396806603 -0.3085181711023601 0.01467518830024254
-0.940756139530048 -0.3387545811545042 0.01494053825525908
0 0 0
0 0 0
0 0 0
0 0 0
0 0 0
0 0 0
0 0 0
0 0 0
0 0 0
0 0 0
0 0 0
0 0 0
0 0 0
0 0 0
0 0 0
0 0 0
0 0 0
0 0 0
0 0 0
0 0 0
0 0 0
0 0 0
-0.8772833800453413 0.4797259032909709 0.01539249193219134
-0.8924675025200258 0.4508117917880602 0.01644643823158893
-0.9144794588374328 0.4042611022194794 0.01732860631115142
-0.9320851828385458 0.3617578257912279 0.01866781753814632
-0.9485275272025667 0.3160826893332594 0.01967901529136182
-0.9637224380643107 0.2661391642588641 0.02022393678226901
-0.9771197922996022 0.2116880066506593 0.0206179372550172
-0.987214369826953 0.1579688944777349 0.0212982718701209
-0.9943315476118399 0.1040375215462821 0.02193097203384446
-0.9985234970508855 0.04953389930072034 0.02229840033131325
-0.9997359309118573 -0.005336563124891898 0.02235149967709729
-0.9979417345399958 -0.06018978997553266 0.02212427729905242
-0.9931520983252217 -0.1148059421246841 0.02164498198364628
-0.985306348011854 -0.1695210538409182 0.02083297559655869
-0.974110343081714 -0.2252313904272562 0.01949000429527223
-0.9608135513149707 -0.2766171351791559 0.01789637211252561
-0.9459785282939486 -0.3237998646662766 0.01668147622110646
-0.9297740186669815 -0.3677781155200835 0.01610999554150035
-0.909351848591249 -0.4157285536333031 0.01577926353286612
-0.8951172842032156 -0.4455476684756716 0.01588466671202233
0 0 0
0 0 0
0 0 0
0 0 0
0 0 0
0 0 0
0 0 0
0 0 0
0 0 0
0 0 0
0 0 0
0 0 0
0 0 0
0 0 0
0 0 0
0 0 0
0 0 0
0 0 0
0 0 0
-0.8396054631705205 0.5429705297995715 0.01567386306524041
-0.8610118907918289 0.508319640188903 0.0164215502710079
-0.8819340886216325 0.4710311663466423 0.01794167375837011
-0.9037237539785533 0.4276626889452942 0.01969774045394996
-0.9238564242993649 0.3821265342203881 0.02164761246663555
-0.9424037038356118 0.3336525322901314 0.02347864334459152
-0.9591297486248304 0.2818556140045284 0.02505071170644354
-0.9735611006086202 0.2268940374026166 0.02641740284114722
-0.9850002416404025 0.1703245628819689 0.0276417663584348
-0.9932309928139533 0.1125852366186835 0.02857900294487089
-0.9981180709178535 0.05398443971092333 0.02908602372824274
-0.999563670625284 -0.005082287297234788 0.02909705692911927
-0.9975289275667012 -0.06416832228323394 0.02860882875934189
-0.9920393572800671 -0.1228573510837659 0.02764027662724676
-0.9831714084263549 -0.1807967277088227 0.0262016202307945
-0.9710893417335584 -0.2374728993344022 0.0243333609104164
-0.9563953114983631 -0.2912255079285023 0.02226458343948744
-0.9395556979559948 -0.3417911882731822 0.02034389483921176
-0.9208542681296504 -0.3894547128717606 0.01877347835057571
-0.9003251469026098 -0.4348636941758446 0.01755555019162822
-0.8804157872258138 -0.4739039680543897 0.01682470403466971
-0.8601036740059519 -0.5098506663976659 0.01655197677978223
0 0 0
0 0 0
0 0 0
0 0 0
0 0 0
0 0 0
0 0 0
0 0 0
0 0 0
0 0 0
0 0 0
0 0 0
0 0 0
0 0 0
0 0 0
0 0 0
-0.7654349808265666 0.6433009405054393 0.01652846247689
-0.7860485808241242 0.6179241051262668 0.01724612676173496
-0.8174045555951167 0.5757980568154566 0.01750400696678439
-0.8434417373465527 0.5368852231474505 0.01898138213462021
-0.8678174055695052 0.4964275338089251 0.02127567312685754
-0.8915101610726597 0.4523639934973526 0.02400937507155797
-0.9138946055321886 0.4050556732660747 0.02695461990330065
-0.9346184659951141 0.3543954010106883 0.02987009814868854
-0.9532758757794874 0.3003395194167705 0.03257725791643663
-0.9693659976918749 0.2431184798297467 0.03497094914509001
-0.9823374213131266 0.1834328969193983 0.03695352507723234
-0.9918014037774825 0.1218888159697177 0.03838088074178185
-0.9974864875531549 0.05907780714739438 0.03912185899882947
-0.9992256363756916 -0.004374128997764949 0.03910236060782317
-0.9969621204077288 -0.06781385491090702 0.03831202884535204
-0.9907543553561905 -0.1305839079557467 0.03679198724917745
-0.9807782151781709 -0.192029008049045 0.0346258963728116
-0.9673431462068285 -0.2514480390420996 0.03195498628628542
-0.9509364893682953 -0.3080232777272755 0.02900781905016336
-0.9320452407389707 -0.3614040071742595 0.02605403642856918
-0.9111054474954179 -0.4115141898432975 0.02330096782942796
-0.8885352451166709 -0.4583338489741829 0.02086147334124993
-0.865029383879822 -0.5013690185859782 0.01879553741258559
-0.83981590376654 -0.5426055418529001 0.01698451445610318
-0.809570285851638 -0.5868311718699764 0.01500426565369044
-0.7895284216089651 -0.6135511450213453 0.01413732346137919
0 0 0
0 0 0
0 0 0
0 0 0
0 0 0
0 0 0
0 0 0
0 0 0
0 0 0
0 0 0
0 0 0
0 0 0
0 0 0
-0.718127636125629 0.6957409982000845 0.01540005377151105
-0.7433947041625526 0.6686475375124291 0.01657662214187932
-0.7690061628969902 0.6389816007232831 0.01822183754613813
-0.7972675035106416 0.6032880805752913 0.02019949706525119
-0.824681432660975 0.5651304984022819 0.02297943428001683
-0.851323129212942 0.5239716507486328 0.02650733632103919
-0.8772267895424188 0.479103044847618 0.03055212147857619
-0.9019742524336188 0.4303798487643163 0.03486593931643966
-0.925083708833795 0.3777356364832944 0.03919082266130917
-0.9460152161817412 0.3212191702526001 0.04328343118150128
-0.9641752070221166 0.2610830613551074 0.046923397546463
-0.978961784584116 0.1978477674059883 0.04990075406592605
-0.989861166702632 0.1321720151165908 0.05201373928226217
-0.9964832517917905 0.06481891617722184 0.05310025427499235
-0.9985851788513026 -0.003369523322633289 0.05306869973053564
-0.9960881848428521 -0.07150901686964295 0.05191135254266161
-0.9890844006809866 -0.1387144369829072 0.04970264884337571
-0.9778325427390652 -0.2041390691870399 0.04659140255350389
-0.9627440153546865 -0.2670068441146438 0.04279376233369641
-0.9443546540727756 -0.3266585691957193 0.0385806493218136
-0.9232393392731222 -0.3826968127464646 0.03423845691946059
-0.8999641320314812 -0.4349294787770519 0.03001515529768379
-0.8750753138238823 -0.4832829613124945 0.02609165462478572
-0.8490869479067055 -0.5277703218040168 0.0225796881590344
-0.8221121804690394 -0.5689909621594609 0.01951531975890183
-0.7942275404954423 -0.6073835319564977 0.01696640877174499
-0.7688763255308727 -0.6392113968327591 0.01542680126454313
-0.7441120395070219 -0.6678860916238882 0.01501470199726733
0 0 0
0 0 0
0 0 0
0 0 0
0 0 0
0 0 0
0 0 0
0 0 0
0 0 0
0 0 0
0 0 0
-0.6644498398912267 0.7471883018794722 0.01469870072465473
-0.691453768491737 0.7222472727640119 0.01582918265488526
-0.7183508023126344 0.6954514336771003 0.01787255474910556
-0.7459089876377969 0.6657261970928261 0.02069813193213378
-0.7745871429110063 0.63200179169466 0.02425888150148659
-0.8034478250776882 0.5946852371111228 0.02865416444463005
-0.8321506746672235 0.5535165783615242 0.03383270798849464
-0.8603918178587567 0.5080915251814642 0.03960961752500006
-0.8876895054751666 0.458166360168027 0.04572666923836786
-0.9134510192063802 0.4036281420182994 0.05188023208969007
-0.9370009376601306 0.3445214139231067 0.05774286252393981
-0.957608602370383 0.2811036660111543 0.06298010496442678
-0.9745397683148757 0.2138867944501293 0.06726573520475371
-0.9871335316990025 0.1436122938899631 0.0703057582216184
-0.9948681610382061 0.07121402446075979 0.07187422954411339
-0.9974131874316584 -0.002236173148647613 0.0718465939837656
-0.9946628293652888 -0.07559901059651905 0.07021855506819441
-0.9867460456378329 -0.1477459974940049 0.06710709085186647
-0.9740116829124746 -0.2176358995739973 0.06273640702674303
-0.9569907770452238 -0.2843807093508064 0.05741310651332113
-0.9363397628805693 -0.3472987129417865 0.05149225609484485
-0.9127676410162416 -0.405955696121504 0.0453343832002792
-0.8869803888004092 -0.4601349670344431 0.03926323975025928
-0.8596457154947647 -0.5097884972649884 0.03354000429037513
-0.8313566547675498 -0.5550152192421967 0.02835875496640292
-0.8025589010457049 -0.5960954346035043 0.0238630089714032
-0.7737396724102362 -0.6331814456580986 0.02020337132312115
-0.7459571440148508 -0.6657614788871441 0.01759524149334955
-0.7189798528210462 -0.6948444641555859 0.01609788401508041
-0.6923247394787738 -0.7214179617723673 0.01557496509948855
0 0 0
0 0 0
0 0 0
0 0 0
0 0 0
0 0 0
0 0 0
0 0 0
0 0 0
-0.6100130339518089 0.7922730763293102 0.01369200250509183
-0.6356983684768471 0.7717914218946268 0.01501950084871296
-0.6622434570121515 0.749090954304973 0.01721469787881312
-0.6898631703199758 0.7236515867436507 0.02042516192022963
-0.7185960116034233 0.6949900402121068 0.02467014620195889
-0.74840288486669 0.6625679493969144 0.02994719277633093
-0.7788868830510337 0.6261157222784637 0.03625363053215656
-0.8096917651364753 0.5852408555150007 0.04350156900903856
-0.8404038237847071 0.5395087788437367 0.05149456785508665
-0.8704638650236368 0.4885693549367129 0.05993867787026575
-0.8991701668265693 0.4322111120809016 0.06845849606052716
-0.9257005707148774 0.370416371452397 0.07661700293139498
-0.9491510361949815 0.303424003165552 0.08394155581702784
-0.9685999742056657 0.2317788131591961 0.08995927822797095
-0.9831967856653877 0.156339877677969 0.09424395633082656
-0.9922554788609648 0.07824749339674791 0.09646965557895683
-0.9953363763313118 -0.001151642195898296 0.09645813429620616
-0.992299818947363 -0.08041232743458891 0.0942068305038581
-0.9833207235709407 -0.1581142088144072 0.08989021952868323
-0.9688613874700138 -0.2329791968663083 0.08383499088810634
-0.9496092523869522 -0.3039634188739433 0.07647553705308026
-0.9263933965784041 -0.3703114055420493 0.06829888506702457
-0.9000967451149346 -0.4315682434054071 0.05978880093689047
-0.8715842893631548 -0.4875458538409689 0.05137963543860898
-0.8416526192391067 -0.5382702053444063 0.04342872973552247
-0.8109947068390485 -0.5839318590823412 0.03621007356642668
-0.7801838707915302 -0.6248339665262848 0.02992727905731168
-0.7497463449970663 -0.6612626719404191 0.02474059137848401
-0.7202536129706484 -0.6933995236311499 0.02078060708499377
-0.6919554427584685 -0.7217131972759154 0.01810320730440448
-0.6650486746290265 -0.746613246018283 0.01670093542941023
-0.6395757873257449 -0.7685494938302171 0.01656767334208436
0 0 0
0 0 0
0 0 0
0 0 0
0 0 0
0 0 0
0 0 0
0 0 0
-0.5832638393987796 0.8121537204869207 0.01447853407795853
-0.6037820285063146 0.7969797353327278 0.01644881520883958
-0.6295217054643173 0.7767332788313239 0.01969354983839249
-0.6575322736024506 0.7530363128801313 0.02424088808374093
-0.6871578334092153 0.725882995513712 0.03013285264280605
-0.7181711003278168 0.6948617437517555 0.03738218458306496
-0.7503069740467069 0.65949014519855 0.04595860183761991
-0.7832392920527929 0.619215960949407 0.05574769134360039
-0.81652232791628 0.5734684968121861 0.06652196011957222
-0.8495371457287232 0.5217409576897176 0.07792952647174024
-0.8814764330606761 0.463669902333934 0.08949591961797294
-0.9113583121424722 0.3991210780282597 0.1006399123726926
-0.9380706873307355 0.3282792742918098 0.110707288112768
-0.9604522041665395 0.2517228693411935 0.1190258819008354
-0.9774071990899655 0.1704556160886389 0.124980198875463
-0.9880369006345285 0.08587629916328141 0.1280950593369339
-0.9917599819243512 -0.0003206550195038826 0.1281094666048083
-0.9883935922732252 -0.08630147692611068 0.1250206456294345
-0.978174208870039 -0.1702759281860429 0.1190853701419873
-0.9617139832808329 -0.2506678555577136 0.1107783397249214
-0.9399061181328215 -0.3262392946609941 0.1007194703897257
-0.913804786125171 -0.3961498095344108 0.08958873400478275
-0.8845073033422727 -0.4599516184592661 0.07804703076274995
-0.8530599698195293 -0.5175354010925848 0.06667680636803926
-0.8203952950275624 -0.5690529728089271 0.05594885194497491
-0.7872988494896704 -0.6148371677740636 0.04621448599528757
-0.7544068329282708 -0.6553226293196578 0.03771713049405979
-0.7222456702856143 -0.6909587389274388 0.03061393234275671
-0.6912850815889992 -0.7221497276047414 0.02499413717030176
-0.6619676146608905 -0.7492413281069614 0.02088802041090465
-0.6351728333026799 -0.772153223543231 0.018299486496682
-0.614067764245799 -0.7890649375886525 0.01724253990515667
0 0 0
0 0 0
0 0 0
0 0 0
0 0 0
0 0 0
0 0 0
-0.5062888482244462 0.862218202801398 0.01585474444732753
-0.5389978845782918 0.8421488274801814 0.01632889444761747
-0.5652952287980485 0.8246729497302481 0.01886346419333442
-0.5922870589655526 0.805392831781947 0.02320401465677619
-0.6208989456964111 0.7833443015632549 0.02926097130071318
-0.6512584118769971 0.7579509549587938 0.03705173189614028
-0.6833397220450937 0.7286120192504532 0.04659774328345032
-0.7170033979169455 0.6946633075367274 0.05787068806993348
-0.751984286097665 0.6553736111005318 0.07074647224585494
-0.7878468639584476 0.6099820492613697 0.08496598454522221
-0.8239359754248851 0.5577707331249587 0.1001065316045295
-0.8593473155473974 0.4981628012965468 0.1155682251566512
-0.8929291093722469 0.4308431479937881 0.130582492940241
-0.9233271271585664 0.3558910463735749 0.1442517915459986
-0.9490837380581801 0.2738983230566978 0.1556270117307391
-0.9687900279443922 0.186034598753314 0.1638200531748081
-0.9812698293573333 0.09402287670629537 0.1681345313994179
-0.985755608580919 7.397922998505409e-06 0.1681840661196301
-0.9820089646084614 -0.09367105181668596 0.1639637992978104
-0.9703504823755231 -0.18474328365772 0.1558520468166911
-0.9515918970608847 -0.2712575042610358 0.1445414398369542
-0.9268945489336072 -0.3517471015584069 0.1309216242735474
-0.8975968924914646 -0.4252952445243329 0.1159472879141772
-0.8650536664724006 -0.4915051725352351 0.1005227312291359
-0.8305147714632338 -0.550407400930067 0.08542193736260296
-0.7950526400800373 -0.6023411704355467 0.07124895718603666
-0.7595335800937005 -0.6478382205869543 0.05843270194654696
-0.724624752250424 -0.6875222808829977 0.04724491205888368
-0.6908275494265774 -0.7220292835875899 0.03782870068163473
-0.6585148856078551 -0.7519604593252995 0.03022603255733946
-0.627944345497501 -0.7778757886694608 0.02439582668365235
-0.5992265990933197 -0.8003242238700392 0.0202143420835896
-0.5717143209431824 -0.8202679981505242 0.01741110101650589
-0.5387932106185418 -0.8422959309482361 0.01547387796926397
0 0 0
0 0 0
0 0 0
0 0 0
0 0 0
-0.4420301757730218 0.8968735457909882 0.01507204585884186
-0.4703415710184723 0.8823386898873143 0.01603879358968145
-0.4977128051091881 0.867154808683461 0.01801392260149458
-0.5239796571852536 0.8514522305176651 0.02178113868733078
-0.5510600637966661 0.834011270928477 0.0275319097172693
-0.5797925488879595 0.8139968079821794 0.03535246595111877
-0.6105052539694662 0.7907137773736752 0.04533273813846729
-0.6433189259173487 0.7634326578352753 0.05754421349810437
-0.6782107761600717 0.7313323405482516 0.07199410231795804
-0.7149996538740605 0.6934913229439842 0.08857358500916296
-0.7532956270799192 0.6489188658348876 0.1070046904852034
-0.7924381991266407 0.596628502774351 0.1267916804926962
-0.8314451807495822 0.5357564907759071 0.147186595856345
-0.8689938081665207 0.465724539634365 0.1671837747827407
-0.9034582286700457 0.3864326415732252 0.1855614253424521
-0.9330248672118033 0.2984452676676439 0.2009851222632769
-0.9558910316100162 0.2031124130592692 0.2121737103148717
-0.9705215523514588 0.1025618159399533 0.218103164425492
-0.9759044241670596 -0.0004757430747723903 0.2181979114466633
-0.9717295702063106 -0.1029905765167312 0.2124490139666683
-0.9584317637826762 -0.2020887366082498 0.2014167240040131
-0.9370862214371641 -0.2953474529018269 0.1861163497842698
-0.9091980841933713 -0.3810413381422668 0.1678283120508963
-0.8764560052714626 -0.4582058137776535 0.1478928769209232
-0.8405149197056611 -0.5265623574847939 0.1275411832791337
-0.8028452806051598 -0.5863625277997732 0.1077888742045381
-0.7646554514066084 -0.6382091353436126 0.0893931775814787
-0.7268742242940862 -0.6828949247433489 0.07285865642904527
-0.6901737589349127 -0.7212774990126823 0.05847180427917358
-0.6550128500619709 -0.7541950398824999 0.04634660797003159
-0.6216784518484187 -0.7824231604078831 0.03646780175295564
-0.5903002289942887 -0.8066725416066661 0.02872368825779624
-0.5607941609524359 -0.8276378189806078 0.02292486934914092
-0.5325756171991388 -0.8461732463517181 0.01881619312055752
-0.5039919399101626 -0.8635572793957262 0.01615393785558169
-0.4753270774130847 -0.8796806631638892 0.01503663304981272
0 0 0
0 0 0
0 0 0
0 0 0
-0.4122523731392148 0.9109478534938856 0.01489929716352885
-0.431304557392742 0.9020524404354435 0.01666653763415817
-0.4546397772715898 0.8904520185861663 0.01994681724638328
-0.479410241915071 0.8772309329319008 0.02513384678793456
-0.5057011757395339 0.8620953363326049 0.03252617298768515
-0.5339408332691506 0.8444604268394029 0.04235297002640877
-0.5644642176344525 0.8236355551142627 0.05481440834256449
-0.5974888992403344 0.7988097602922941 0.07007126476909213
-0.633107111226369 0.7690224108503488 0.08820383962457984
-0.6712463911870881 0.7331534533407075 0.1091526278790631
-0.711601303178704 0.6899480910006012 0.1326469639267932
-0.7535482778334699 0.6380910022275074 0.158129269430129
-0.7960628740164454 0.5763452104483502 0.1846891956935303
-0.8376678221111168 0.5037641357101679 0.2110315506548848
-0.8764497819121908 0.4199650667036289 0.2355103448570549
-0.9101839020776971 0.3254166070193459 0.256260212039702
-0.9365857402682701 0.2216517930608193 0.2714362425304686
-0.9536641395316547 0.111298810650915 0.2795304701084296
-0.9600901124209735 -0.002146432124733594 0.2796826216635845
-0.9554612412465722 -0.114789519871714 0.2718771461582979
-0.940363656628886 -0.2229217888438717 0.2569476003978207
-0.9162128138190933 -0.3235360368242713 0.2363863631213586
-0.8849430291914752 -0.4146282399075098 0.2120359822214511
-0.8486598908573653 -0.4952431827969394 0.1857702331998361
-0.8093532350945863 -0.5653201951882227 0.1592495455386799
-0.7687177058598397 -0.6254395762246043 0.1337849961302514
-0.7280793848702336 -0.676560441046545 0.1103013097741182
-0.688400334055588 -0.7198044376880675 0.08936750839493761
-0.6503273204360631 -0.7563042670571066 0.07126171430482438
-0.6142563361800136 -0.7871138230566308 0.0560444735534229
-0.5803916591655508 -0.8131681003525604 0.0436252511748262
-0.5487849099668182 -0.8352793658635721 0.03381572940599577
-0.5193489544068488 -0.8541552549485567 0.02637165145147715
-0.4918901807000088 -0.8704030956946588 0.02103571097126507
-0.4665431685080524 -0.884323124055386 0.01760920723339611
-0.4463380734614094 -0.8947205937804541 0.0160431681381333
0 0 0
0 0 0
0 0 0
-0.335422734168033 0.9419646467182281 0.01393534126758333
-0.3643672720065561 0.9311324862384307 0.01512561277894645
-0.3859199438344893 0.9223611956221078 0.01776574685567438
-0.4078062765451689 0.9127975085883184 0.02224295675766563
-0.4310017848159951 0.9018886414788462 0.02888494169748589
-0.4559452239007987 0.8891943962595849 0.03804311320859908
-0.4830575710335476 0.8741565030379193 0.05005787913690418
-0.5127199615758572 0.8560727733933539 0.06525065253514484
-0.5452476902644097 0.8340656097790387 0.08390181669812691
-0.5808585746594389 0.8070464756767279 0.1062040599147547
-0.6196163525069803 0.7736932530369278 0.1321904910009832
-0.661343502638265 0.7324599522145055 0.1616390729993054
-0.7055078736235172 0.6816438067703295 0.1939596889739633
-0.7510993420821828 0.619539252469528 0.22808089129344
-0.7965298905971672 0.544703417870838 0.2623705775141171
-0.8396105864250252 0.4563323543303587 0.294643590723329
-0.877670079818355 0.3546931060380293 0.3223166634239328
-0.9078604262725779 0.2414834711949624 0.3427465237574325
-0.9276307676063313 0.1199402006163488 0.3537167048164357
-0.9352517031040004 -0.005449102974382079 0.3539414628407364
-0.9302026930748147 -0.1296252700497185 0.3433951647313908
-0.9132617397912598 -0.2478250288666352 0.323319887573734
-0.8862665417054914 -0.356329062602428 0.2959074453241465
-0.8516640205953586 -0.4528563369505332 0.263798282987386
-0.8120302821609119 -0.5365588017187901 0.2295897932220967
-0.7697033967794393 -0.6077337783284832 0.1954899886561417
-0.7265825340797777 -0.6674265567161348 0.1631551793853091
-0.6840736358088583 -0.7170589487547328 0.1336776899935292
-0.6431298358122982 -0.7581508265590787 0.1076630785173436
-0.604335758617071 -0.7921457735309396 0.08534262905370499
-0.5679995976711401 -0.8203227766237126 0.06668582456403235
-0.5342324198790119 -0.8437676960442274 0.05149559847628788
-0.5030061830617023 -0.863380534583728 0.03948205039777539
-0.4741926338987273 -0.8798989546400648 0.03031790856091321
-0.4475993637272964 -0.8939205724644841 0.02368163245402996
-0.42300298945417 -0.9059230582229866 0.01928428097559986
-0.3996530864183874 -0.9165118680985869 0.01683467108959238
-0.3701361325351732 -0.9288403109722541 0.01596621761314585
0 0 0
0 0 0
-0.3052664352143921 0.9521696940175659 0.01361166139718948
-0.3204628327814042 0.9471326413331049 0.01559911943326346
-0.3383066961103653 0.940839758574627 0.01921270548688727
-0.3577163962672108 0.9334997083027823 0.02484500835619487
-0.3787542519190537 0.9249114596852075 0.03292428277451432
-0.4017089927524166 0.9147149993646768 0.04389026178000629
-0.4269711423278504 0.9023907360835064 0.05819452766297618
-0.4549625939735444 0.8872366051073497 0.07629052786845579
-0.4860911159338526 0.8683273680991292 0.098605318417519
-0.5207047722853692 0.844464362899222 0.1254849788319394
-0.5590243983884471 0.8141308703638301 0.1571071224581058
-0.601041197521371 0.7754759822382919 0.1933558373921828
-0.64637582269751 0.7263615501641875 0.2336604251369817
-0.6941096080353123 0.6645190776390748 0.2768144640129512
-0.7426228348499695 0.5878659522348487 0.3208191817245485
-0.7895086450617885 0.4950041889324214 0.3628318512921015
-0.8316600193707991 0.3858492396365424 0.3993269042427061
-0.8656179271971358 0.2622128359828119 0.4265560136263284
-0.8881839265429229 0.1280525469307939 0.4412843276792549
-0.8971459459923549 -0.01087798114737666 0.4416002956471375
-0.8918346491696774 -0.1480068264319494 0.4274633760568744
-0.8732527757756972 -0.2772280812249309 0.4007170829655033
-0.8437272491597684 -0.393979976313581 0.3645601559266174
-0.8062735843171419 -0.4957437057107819 0.3227399657317477
-0.7639541885633652 -0.5819286143311687 0.2788065379418062
-0.719428894865473 -0.6533732513885054 0.2356384085896361
-0.6747487438659947 -0.7117469629939852 0.1952700522868276
-0.6313402786719213 -0.7590444305779335 0.158937109999776
-0.5900959893556557 -0.7972446491527722 0.1272308639585644
-0.5515010510387102 -0.8281247570217106 0.1002794969618913
-0.5157546147952956 -0.8531864305874277 0.07791079500839487
-0.4828676823950368 -0.8736504942144963 0.05977972279303128
-0.4527354841234411 -0.890485200418488 0.04546085405223082
-0.4251934885227934 -0.9044442195578649 0.03451305588007223
-0.4000769147054304 -0.9160976405323399 0.0265249944554727
-0.3773087241270423 -0.9258460823482393 0.02114612252967642
-0.3570446623101573 -0.9339119606154783 0.01809858931459827
-0.3405847553198728 -0.9400580561020444 0.01711360865941051
0 0 0
0 0 0
-0.2629816521156108 0.9646931196128145 0.01441650520199908
-0.2733889234775781 0.9617584289031148 0.0167099058519902
-0.2878286896543643 0.957451515594043 0.02100573013538995
-0.3043997044249731 0.9521432236410319 0.02764238811051615
-0.3227528121602327 0.9457569128526959 0.03707403449853926
-0.3430554701922539 0.9379935369668783 0.04981033004845996
-0.365675013063147 0.9283703345598165 0.06641014026909388
-0.3910654263083672 0.9161971259000508 0.08746804467198609
-0.4197120989905248 0.9005225721378706 0.1135819133100022
-0.4520832742926676 0.8800631323327064 0.1452914182378492
-0.4885606167433783 0.8531287030049955 0.1829752438892855
-0.5293299613792017 0.8175692988350721 0.2266941410549043
-0.5742203928722248 0.7707855114897756 0.2759721646962102
-0.6224934531022315 0.709869165611388 0.3295264307442591
-0.6726130977262185 0.631957409653237 0.3849953936757045
-0.7220750756941576 0.5348651039368734 0.4387788801342578
-0.7674285772367135 0.4179646709433062 0.4861675767507399
-0.8046367697641199 0.2830889938810009 0.521938971803222
-0.8298263354167108 0.1350169324265182 0.5414412996872374
-0.8402493679966213 -0.01892495476659672 0.5418697681808424
-0.8350542468141354 -0.1702508393310345 0.5231625527355287
-0.8154700548344627 -0.3111953309979698 0.4880225974617791
-0.7843240259200951 -0.4362441707784784 0.4410519763319184
-0.7451841874519111 -0.5427349108231333 0.3874781843477643
-0.7015415485535171 -0.6305402984815898 0.3320517845816828
-0.656291460350524 -0.7012558456806104 0.2784272938663657
-0.6115464278640322 -0.7573389008923955 0.2290169333517496
-0.5686785953252105 -0.8014529558902177 0.1851426874434348
-0.5284689419296082 -0.8360749613210736 0.1473066070064917
-0.491276402206774 -0.8633167566138632 0.1154628701552463
-0.4571837122454292 -0.8848838053194258 0.08923958953794074
-0.4261075259909706 -0.9021057870076251 0.06809937842012191
-0.3978774818812191 -0.9159949331871794 0.05144698035137127
-0.3722991365590725 -0.9273056729867607 0.0386980847580241
-0.3492268926399281 -0.936579270446246 0.02932315855150878
-0.3286991376913956 -0.9441575535143746 0.02287774076877317
-0.3112846607784111 -0.9501262684669658 0.01902456131184922
-0.2991649489439955 -0.9540410133627425 0.01749508917174032
0 0 0
0 0 0
-0.2130847695896133 0.9769042566548738 0.01590453704227852
-0.2221479024601366 0.9748432092116843 0.01819414428944601
-0.2342045656136499 0.9719165430534682 0.0229446025181634
-0.2479380414178182 0.968297820548875 0.03043120665031334
-0.2631983555991447 0.9638662489053164 0.04109111620654625
-0.2802140681495194 0.9583325961648212 0.05548613465623035
-0.299375154990896 0.9512398091960276 0.07427881242239397
-0.3211625555366054 0.9419178220122151 0.09821114751880798
-0.3461139476640188 0.9294101889545484 0.1280696525329031
-0.3747879038836783 0.9123782778151048 0.1646204886204063
-0.407704099572881 0.8889921947354731 0.2084951915293788
-0.4452395986342385 0.8568311315004503 0.2600040613138182
-0.4874627850011722 0.8128412383263752 0.3188560090619985
-0.5338959042617721 0.753436652967949 0.3837816741025535
-0.5832256818820231 0.6748678730066313 0.4521074628633703
-0.6330402350358723 0.5739834956090656 0.5194256516520191
-0.6797529209457011 0.4494049146555866 0.5796302175949696
-0.7189254621551991 0.3028540420113696 0.6256401594385611
-0.7461136748044188 0.1399962718744785 0.6509342732804073
-0.7580593904416274 -0.02997261261723075 0.6514964336480785
-0.7536979644093464 -0.1962509463324461 0.6272359560076464
-0.7344151157309408 -0.3491189483703699 0.5820226779728394
-0.7034282501669857 -0.4820554359224235 0.5223133672084737
-0.6647073260340243 -0.5924117301204438 0.4552060113096037
-0.6220010054659112 -0.6807675072263167 0.3868725246179437
-0.5782811586764142 -0.7496906301398072 0.3217994105035651
-0.5356002437806442 -0.8025620929566774 0.2627288827120302
-0.495201043704289 -0.842771225453167 0.2109800650828166
-0.4577199104015681 -0.873295571374039 0.1668751888102925
-0.4233870296314786 -0.8965556934227253 0.1301203740047223
-0.3921848185209738 -0.9144249652959502 0.1000902141329042
-0.363959507520114 -0.9283074405161074 0.07601823970699025
-0.3384960960956079 -0.9392328582280406 0.05711419221890072
-0.3155726425834995 -0.9479433108677343 0.04263081789016195
-0.2950151912421322 -0.9549599688247815 0.03189819553736014
-0.2767930485284336 -0.9606212875747072 0.02433824448573453
-0.2612728469536763 -0.9650685847672551 0.01947116175392508
-0.2500896201280451 -0.9680741981392684 0.01695667423824203
0 0 0
-0.122772599536182 0.9922997383502525 0.01637431137934696
-0.1525216339074478 0.9881566869211709 0.01683785268900574
-0.1666152409119458 0.985830571020562 0.0194279884992333
-0.1776973161167296 0.9837755332377015 0.02468530023691408
-0.1886846487274017 0.9814848931658475 0.03294704572251246
-0.2004937409400201 0.978674884059672 0.04469598588981951
-0.2136279949759178 0.9750357886119838 0.06056641551532656
-0.228540373977366 0.9701313572554755 0.08132925139169719