# OOMMF: rectangular mesh v1.0
# Segment count: 1
# Begin: Segment
# Begin: Header
# Title: 
# Desc: time = 3.3199999999999997e-09
# Desc: stepsize = 2.951709413185916e-14
# Desc: step = 21246
# meshunit: m
# valueunit: (none)
# valuemultiplier: 384000.0000000001
# xmin: 0
# ymin: 0
# zmin: 0
# xmax: 9.357999999999999e-08
# ymax: 9.357999999999999e-08
# zmax: 2.3395e-08
# ValueRangeMaxMag: 1
# ValueRangeMinMag: 0
# meshtype: rectangular
# xbase: 1.16975e-09
# ybase: 1.16975e-09
# zbase: 1.16975e-09
# xstepsize: 2.3395e-09
# ystepsize: 2.3395e-09
# zstepsize: 2.3395e-09
# xnodes: 40
# ynodes: 40
# znodes: 10
# End: Header
# Begin: Data Text
0 0 0
0 0 0
0 0 0
0 0 0
0 0 0
0 0 0
0 0 0
0 0 0
0 0 0
0 0 0
0 0 0
0 0 0
0 0 0
0 0 0
0 0 0
0 0 0
-0.9862911123399434 0.1644000166390377 0.01422941489733839
-0.9909906922080753 0.133061507935774 0.01523427263826786
-0.9957509957156536 0.09070769898347487 0.015876645628312
-0.9988976045621831 0.04407948552161402 0.01614232189250871
-0.9998616691147195 -0.00375538172557973 0.01620307820204378
-0.99859016003365 -0.05051949843343576 0.01629332875758269
-0.9955193993849928 -0.09307407454876006 0.01668358759483143
-0.9920615691203427 -0.1245232969780882 0.01754398997347362
0 0 0
0 0 0
0 0 0
0 0 0
0 0 0
0 0 0
0 0 0
0 0 0
0 0 0
0 0 0
0 0 0
0 0 0
0 0 0
0 0 0
0 0 0
0 0 0
0 0 0
0 0 0
0 0 0
0 0 0
0 0 0
0 0 0
0 0 0
0 0 0
0 0 0
0 0 0
0 0 0
0 0 0
-0.9268206796006816 0.3751553751415696 0.01618247097689338
-0.9381964401533549 0.3456664190221607 0.01738293542436573
-0.9523977829209719 0.3043352096916629 0.01784777938983569
-0.9666904197764559 0.2553552596933962 0.0174161895757008
-0.9805824721319933 0.195403970181085 0.0165922808853204
-0.9891302883236766 0.1460466513083284 0.01707771537248452
-0.9951411746191881 0.09686675738543335 0.01763161623827353
-0.9987538003780947 0.04656986245116438 0.01794698140613156
-0.9998280499568494 -0.004276573191371813 0.01804387544907901
-0.9983340365062185 -0.05480422753227733 0.01804572519434995
-0.994369321838711 -0.1044183826294641 0.01806801469636997
-0.9878461689445626 -0.1543883896370875 0.01800476733581796
-0.976436557209805 -0.2151341605123795 0.01699831535465181
-0.9640764422595481 -0.2651758767403656 0.01543916691890953
-0.9514132928099674 -0.3075717919588396 0.01457185834829714
-0.9411006768517791 -0.337800111911401 0.01485262339681234
0 0 0
0 0 0
0 0 0
0 0 0
0 0 0
0 0 0
0 0 0
0 0 0
0 0 0
0 0 0
0 0 0
0 0 0
0 0 0
0 0 0
0 0 0
0 0 0
0 0 0
0 0 0
0 0 0
0 0 0
0 0 0
0 0 0
-0.8771514815626451 0.4799793812892773 0.01500239746235587
-0.892328994907416 0.4510997416370549 0.0160620030663179
-0.9143328715041668 0.4046084385684736 0.01695321580485669
-0.9319367160331857 0.3621589358041615 0.0182992493419196
-0.9483816532255506 0.3165423094222543 0.0193185447380599
-0.9635847052611899 0.2666637300450254 0.01987387393486344
-0.9769979575640664 0.2122820458959637 0.02028112190846745
-0.9871156756533911 0.1586274078450195 0.02097589949724197
-0.9942628290599409 0.1047557911809063 0.02162523904571747
-0.9984911908436095 0.05030725984626422 0.02201184713899401
-0.9997458737412451 -0.004513702873379732 0.02208652131333739
-0.9979988781252389 -0.05932434388722296 0.02188290390040456
-0.993260400027619 -0.1139060137356585 0.02142890038769173
-0.9854691810306663 -0.168595152225605 0.02064383406182742
-0.9743315425213842 -0.2242864413059353 0.01932970496977644
-0.9610911046411926 -0.2756597944084401 0.0177641866199406
-0.9463095308219108 -0.3228366850506008 0.01657548373815408
-0.9301554528304973 -0.3668159305167144 0.01602830898282017
-0.9097896720889892 -0.4147716563851709 0.01572340992629771
-0.8955925991652508 -0.4445928578977738 0.01584572581864651
0 0 0
0 0 0
0 0 0
0 0 0
0 0 0
0 0 0
0 0 0
0 0 0
0 0 0
0 0 0
0 0 0
0 0 0
0 0 0
0 0 0
0 0 0
0 0 0
0 0 0
0 0 0
0 0 0
-0.8394976683899208 0.5431487428935998 0.01526787021781643
-0.8608880891684983 0.508542076263415 0.01602044311203643
-0.881797051167428 0.4713026596297529 0.01754319179479936
-0.903575817909142 0.4279931935313179 0.01930200975774579
-0.9237027141414565 0.3825199783048523 0.02125469560735275
-0.9422499310236729 0.3341136283162036 0.02309005975012985
-0.9589826986609449 0.2823891367136333 0.02466899136769924
-0.9734290504538584 0.2275027555031259 0.02604572845945692
-0.9848920298984276 0.1710067373892962 0.02728342372252051
-0.9931552889373038 0.1133366855955574 0.0282377009346318
-0.9980829563504637 0.05479921288795826 0.0287655785545476
-0.9995762910748157 -0.004211863005669193 0.02880101614762679
-0.9975951452687913 -0.06325154896989506 0.0283402132851425
-0.992163490846784 -0.121904746335128 0.02740146440778336
-0.9833561718838738 -0.1798191709915674 0.02599432556921012
-0.9713358588828588 -0.2364804763566152 0.02415850886222949
-0.9567020068240194 -0.2902273272332416 0.02212167864204301
-0.9399196896025935 -0.3407956291898901 0.02023156500200626
-0.9212721161221012 -0.3884692593030659 0.01869017475660027
-0.900794284480861 -0.4338933145228988 0.0174999616841219
-0.8809291046698557 -0.4729502095852154 0.01679320692620411
-0.860659057664981 -0.5089129234717082 0.0165415471678282
0 0 0
0 0 0
0 0 0
0 0 0
0 0 0
0 0 0
0 0 0
0 0 0
0 0 0
0 0 0
0 0 0
0 0 0
0 0 0
0 0 0
0 0 0
0 0 0
-0.7653966716415592 0.6433572794711423 0.01610422278511751
-0.7859902732526854 0.6180099059090116 0.01682398735445475
-0.8173142448597082 0.5759388216308102 0.0170850486659535
-0.8433275632074589 0.5370792255457992 0.01856142833116689
-0.867683808299573 0.4966789489937893 0.02085258835668888
-0.8913611227298583 0.452680023214675 0.02358273665474547
-0.9137355166397425 0.4054427454356906 0.0265251918875639
-0.9344559924868443 0.3548595245878871 0.02944003931187389
-0.953118123186763 0.3008857297383966 0.03214997500363029
-0.9692225670321513 0.2437495718011238 0.03455085820027035
-0.9822188474132776 0.1841481625697116 0.03654572489814461
-0.9917183471769975 0.1226841932147096 0.03799090164472482
-0.9974489885226961 0.05994620541723285 0.03875522869400314
-0.9992424585970647 -0.003442499362470707 0.03876413464830607
-0.9970401850772518 -0.06683099886577182 0.0380064064563029
-0.9908983263989365 -0.1295632891833247 0.03652205957752781
-0.9809903158226948 -0.190984517919924 0.03439351940384854
-0.9676231916483611 -0.2503929220201633 0.03176072395967704
-0.951281949815445 -0.3069695024617055 0.02885093609811653
-0.9324519750850682 -0.3603620390862407 0.0259328931197693
-0.9115683845669654 -0.4104926468767098 0.02321351154231291
-0.8890491227321974 -0.4573388093764187 0.02080554751188479
-0.8655886963733892 -0.5004037791792251 0.01876876377828831
-0.8404187297349184 -0.5416713455203452 0.01698564549624973
-0.8102242800474367 -0.5859271006923423 0.0150349158919494
-0.7902154100656739 -0.6126649585377774 0.01418641161964007
0 0 0
0 0 0
0 0 0
0 0 0
0 0 0
0 0 0
0 0 0
0 0 0
0 0 0
0 0 0
0 0 0
0 0 0
0 0 0
-0.7181374783885436 0.6957402489538982 0.0149689050805674
-0.7433773876062687 0.6686773218856278 0.01614616956257202
-0.7689615678951116 0.6390474771032032 0.01778845435449408
-0.7971925755529836 0.6034016221700649 0.01976056289010796
-0.8245784956415141 0.5652987042782986 0.02253174353781131
-0.8511954135714567 0.5242020834974802 0.02604886891627349
-0.8770784105076107 0.4794043252040405 0.03008246660599536
-0.9018109086437268 0.4307605639612499 0.03438635757042339
-0.9249129294693095 0.3782037114693348 0.0387043347871988
-0.9458464950018869 0.3217810080747562 0.04279475125571428
-0.9640198989488774 0.2617423924308237 0.04643871698468783
-0.9788325505163759 0.1986045663531547 0.04942736360844514
-0.9897710617537401 0.1330220352554714 0.05155951368433621
-0.9964446831006958 0.06575369924992959 0.05267299645267012
-0.9986088903917753 -0.002362240688983424 0.0526754577524884
-0.9961823931736645 -0.07044451041578365 0.05155783629158837
-0.9892542025294795 -0.1376098492044402 0.04939283530730239
-0.978079691286202 -0.2030120502381013 0.04632736719920456
-0.9630670780599235 -0.2658742378440242 0.04257573026947866
-0.9447494690745454 -0.3255354419505115 0.0384072482410447
-0.9236997856144123 -0.3815958669911804 0.03410718914154663
-0.9004829624583545 -0.4338606371926653 0.02992293129022705
-0.8756450162701308 -0.4822530164764494 0.02603523728808301
-0.8497005791065501 -0.5267828324860785 0.02255600283599352
-0.8227649514697242 -0.5680464156768905 0.0195218920614596
-0.794917467551129 -0.6064793327656627 0.01700113849763443
-0.7695972329852748 -0.6383418472209937 0.01548499492726601
-0.7448632687094011 -0.6670464115446549 0.01509290472190956
0 0 0
0 0 0
0 0 0
0 0 0
0 0 0
0 0 0
0 0 0
0 0 0
0 0 0
0 0 0
0 0 0
-0.6645193712671623 0.7471349387304157 0.01426143537630231
-0.6914922767532371 0.7222198595871238 0.01539173832219407
-0.7183588364893972 0.6954543738652053 0.01742974209087138
-0.7458858450498279 0.6657660557252133 0.02024512776931431
-0.7745314487119295 0.6320878107520536 0.02379147861893099
-0.803360091218415 0.5948269361480728 0.02816877473792029
-0.8320329036929849 0.5537242574918089 0.03332707363937217
-0.8602476610622898 0.5083762936625369 0.03908331714172914
-0.8875247446494181 0.4585394924563235 0.04518142862816334
-0.913273936042836 0.4041001900387987 0.05132011453058012
-0.9368224852044224 0.3451010476846083 0.05717427832858588
-0.9574422362617127 0.2817963059560194 0.06241158683859665
-0.9744007901182232 0.2146933116690175 0.06670743692851347
-0.9870379653578532 0.144528149819534 0.06976868102502021
-0.9948313409359052 0.07222903600529917 0.07136924722465013
-0.9974483003723107 -0.001137372473377281 0.07138343272948505
-0.9947796639624049 -0.07443583777654378 0.06980491545262454
-0.986950172885281 -0.1465402735779157 0.06674806709877606
-0.9743042060643327 -0.2164099672502611 0.06243428641452111
-0.9573686540345556 -0.2831556674857443 0.05716754536242788
-0.9367965765870625 -0.3460930596717185 0.05130076161059757
-0.9132946490059571 -0.4047844829406098 0.04519299135472201
-0.8875676473700851 -0.4590093673460958 0.03916723159056038
-0.8602831734106507 -0.508715684794194 0.0334845276340232
-0.8320351684462192 -0.5539985227914955 0.02833928745596518
-0.8032711853544883 -0.5951347375912439 0.02387565478465137
-0.7744805026860584 -0.6322737541066311 0.02024477283292207
-0.7467220453615269 -0.6649016770337127 0.01766201712302007
-0.719767319209498 -0.6940266383639542 0.01618738518728034
-0.6931380961467908 -0.7206341478749503 0.01568453335441192
0 0 0
0 0 0
0 0 0
0 0 0
0 0 0
0 0 0
0 0 0
0 0 0
0 0 0
-0.610145384621128 0.7921786705848168 0.01325003758513173
-0.6358006772126389 0.7717156203365854 0.01457738606433053
-0.6623150906958738 0.7490377911513145 0.01676627757361899
-0.6899028199054043 0.7236266580898496 0.01996393719401271
-0.7186019203676253 0.6950008112800775 0.02418992277776786
-0.7483732717359135 0.6626240172484275 0.02944245093125816
-0.7788210134594857 0.6262283278858257 0.03571988727951984
-0.809590436973027 0.5854227763001729 0.04293596803171312
-0.840269911328218 0.5397740491403648 0.05089648309149625
-0.8703029651491245 0.488932556681736 0.05931023410257387
-0.8989911584717658 0.4326862445043254 0.06780494676891149
-0.9255159148685361 0.3710153162204609 0.07594686599779679
-0.9489766152898353 0.3041547154908531 0.08326639584925805
-0.9684543027094508 0.2326435370582321 0.08929304692183959
-0.9830995675240324 0.1573338101385234 0.09360188310795318
-0.9922256902004101 0.07935827345987675 0.0958668041596593
-0.9953902137600475 5.661277333844416e-05 0.09590786800737591
-0.9924489308360274 -0.07913139063638697 0.09371948942657025
-0.9835710943370386 -0.1567884384601661 0.08947227475515727
-0.9692130797598431 -0.2316368361381846 0.08348881461807621
-0.9500569838787547 -0.3026306706609836 0.07619976744378078
-0.9269277310195431 -0.3690106204620303 0.06808923155087367
-0.900705593484449 -0.4303168775436434 0.05963907080861402
-0.8722544348362266 -0.4863561240240094 0.05128276058166723
-0.8423710850107341 -0.5371492680323202 0.04337763237176905
-0.8117498671452398 -0.5828823526291103 0.03619828978334063
-0.7809662323981444 -0.6238547765700275 0.02994931726446888
-0.7505488136254371 -0.6603497823365647 0.02479200140165688
-0.721071344337068 -0.6925467975460804 0.02085784228056693
-0.6927864968902326 -0.7209129614670882 0.01820361819286537
-0.6658946004557809 -0.7458561475817308 0.01682225307068738
-0.640442286265823 -0.7678245594128675 0.01670700227571411
0 0 0
0 0 0
0 0 0
0 0 0
0 0 0
0 0 0
0 0 0
0 0 0
-0.5834269994668957 0.812044313796073 0.01403455466051822
-0.6039227963238596 0.7968822339542777 0.01599879021704224
-0.6296335313964722 0.7766542531419578 0.01922985225410386
-0.6576117492463432 0.7529823765364374 0.02375558626308907
-0.6872019435732314 0.7258624170818738 0.02961824129202392
-0.7181769970483157 0.6948850703006778 0.03683123652396756
-0.7502725827357001 0.6595703314582579 0.04536550953252001
-0.7831640420959923 0.619368330395671 0.05510856984848427
-0.8164080080038087 0.573710408124677 0.06583564442358585
-0.8493888429789302 0.522090993615577 0.07719836661751867
-0.881303395853642 0.4641464664689243 0.08872644544469074
-0.911174496818679 0.3997403824494358 0.09984319198826325
-0.9378947017794426 0.3290528646251199 0.1098987745884933
-0.9603063905843273 0.2526550730248285 0.1182245756081166
-0.9773157713510846 0.1715414963993031 0.124207077421223
-0.9880233318442637 0.08710074596478448 0.1273709377516593
-0.9918441312972504 0.001017735797357407 0.1274526713138996
-0.9885892239896238 -0.08488100944692661 0.1244450097306575
-0.9784874935419152 -0.1688090701780599 0.1185990000281569
-0.9621432857959906 -0.2491903036700795 0.1103833780716441
-0.94044299186949 -0.3247833910566641 0.100412787717977
-0.914435789351412 -0.3947421893089466 0.08936325381743308
-0.885216139085108 -0.4586120584136261 0.0778933051094287
-0.8538295225205759 -0.5162767185439607 0.06658450541803594
-0.8212093003389949 -0.5678816653188329 0.05590795320387459
-0.7881430897717875 -0.6137544655697051 0.04621607986648382
-0.75526984050505 -0.6543256947154039 0.0377538509119251
-0.7231189745093448 -0.6900417974447119 0.03068006655507827
-0.6921631814059931 -0.7213049617974799 0.02508550163479139
-0.6628480224229915 -0.7484593705373637 0.02100166242805945
-0.6360558561829939 -0.7714228263018489 0.01843287486490014
-0.6149549732207821 -0.7883704238946988 0.0173912517985205
0 0 0
0 0 0
0 0 0
0 0 0
0 0 0
0 0 0
0 0 0
-0.5065507751323621 0.8620723896664124 0.01541126820361139
-0.5392190794818537 0.8420157855898411 0.01588084192555718
-0.5654867309908599 0.824552061111576 0.01840259736891027
-0.5924488941440625 0.8052875620176986 0.02272114185220308
-0.6210284710268319 0.7832606692500225 0.0287465159642227
-0.6513519587066768 0.7578975226556987 0.03649617844829492
-0.683393295986844 0.7286002497319267 0.04599216336302612
-0.7170134443618624 0.6947078743109669 0.05720742936608442
-0.7519486293896434 0.6554925249953004 0.07002005737159529
-0.7877658522902198 0.6101964162006217 0.08417419807387752
-0.8238137838239866 0.5581039051019344 0.09925160296728641
-0.859193225538962 0.4986387071060571 0.1146579302253161
-0.8927584507857644 0.4314836953873564 0.1296308958754516
-0.9231614567548093 0.3567127330832478 0.1432792756075259
-0.9489498412226069 0.2749085478784779 0.1546592678986134
-0.9687175364049729 0.1872285352085245 0.1628858811105176
-0.981287670113949 0.09538192463593483 0.1672626585197119
-0.985887988042893 0.001499992371305289 0.1673995969398429
-0.9822719054512236 -0.0920861671934745 0.1632851541715813
-0.9707498437948361 -0.1831120323346904 0.1552891637770001
-0.952123322683634 -0.2696249928944757 0.1440955988520461
-0.9275451453730199 -0.3501529821195796 0.1305867237038592
-0.8983479688307493 -0.4237707583917127 0.115712018519163
-0.8658837415129887 -0.4900720442480206 0.1003729925330165
-0.8314022260190597 -0.5490782408220173 0.08534297877594206
-0.7959776905005257 -0.6011208158960064 0.07122696765950391
-0.7604795055405944 -0.6467254767648823 0.05845578975574599
-0.7255784711782046 -0.6865116575477105 0.04730355392350116
-0.6917797148769184 -0.7211124867759861 0.03791579486917997
-0.6594597240743346 -0.7511275239113728 0.03033669636878913
-0.6288794564017857 -0.7771158557994545 0.02452704590600406
-0.6001528071759601 -0.799626096419166 0.0203645271062361
-0.5726361055127202 -0.8196211567591013 0.0175798195695151
-0.5397239471175155 -0.8416963338922567 0.01566341023607138
0 0 0
0 0 0
0 0 0
0 0 0
0 0 0
-0.4423700297957761 0.896713267582102 0.01463121596837327
-0.4706483369074029 0.8821830522488758 0.01559504059476021
-0.4979891120782384 0.8670054772465862 0.01755980284474308
-0.5242287621581049 0.8513108831669741 0.02130692675274496
-0.551281594301836 0.8338813830921331 0.02702670376454121
-0.5799836468920173 0.8138842666828129 0.03480473795354438
-0.6106615348517235 0.7906273763812461 0.04473076758835841
-0.6434352185897116 0.7633846769077359 0.05687666077470401
-0.6782819579943589 0.7313391175139755 0.07125082914056365
-0.7150217355530971 0.6935736575348732 0.08774679059848596
-0.7532671631827578 0.6491020048965657 0.1060903770841558
-0.7923619922692799 0.5969413739902615 0.1257913718252396
-0.8313300895299646 0.5362298168923724 0.1461090884157208
-0.8688562520712927 0.4663875719736526 0.1660465174134836
-0.9033227846405669 0.3873085641753536 0.184390951149011
-0.9329232865790039 0.2995458859383196 0.1998159242304178
-0.9558592547227802 0.2044333850195268 0.2110451995432929
-0.9705949164294722 0.104080078225577 0.217054936635459
-0.9761120782444748 0.001198999309729671 0.2172642932142947
-0.9720896749380789 -0.1012131191278443 0.2116543606807858
-0.9589489381879573 -0.2002678530070696 0.2007728094143408
-0.9377518703284364 -0.2935400265375478 0.1856224192166839
-0.9099931704965085 -0.379295517368446 0.1674734013326138
-0.8773551193131716 -0.4565574522957436 0.1476593626160888
-0.8414904087215126 -0.5250342639603048 0.1274084522210435
-0.8038705867727608 -0.584965777871573 0.107736337605851
-0.7657073180046395 -0.6369454690311984 0.08940230777092578
-0.7279338282524441 -0.6817593997381584 0.07291407651754453
-0.6912270247965523 -0.7202608793927254 0.05856164109145057
-0.6560502567669335 -0.7532856759728531 0.04646236078980174
-0.6226946148982754 -0.781608321270831 0.0366039437339909
-0.5912934870562544 -0.8059392794422394 0.02887715389331578
-0.5617663408331812 -0.8269735312781343 0.02309452039489369
-0.5335322319070124 -0.8455662416515004 0.01900232869091485
-0.5049427471629039 -0.8629978255863815 0.01635772358111938
-0.476283778439528 -0.8791592420385275 0.01525744190904634
0 0 0
0 0 0
0 0 0
0 0 0
-0.4126258228854638 0.9107858231820704 0.01446079453735545
-0.4316604594562053 0.9018903023074795 0.01622129297499483
-0.4549748603454705 0.8902910748591233 0.01948534012548171
-0.4797241985372148 0.8770731612087471 0.02464474031352441
-0.5059924980758495 0.8619442006228391 0.0319966701957523
-0.5342061248094491 0.8443217040968387 0.04176932136246499
-0.5646984157223827 0.8235181516069142 0.05416228627524678
-0.5976857829626022 0.7987265952218719 0.069336360804822
-0.6332600727173465 0.768991335799007 0.08737279764365562
-0.6713495797540685 0.7331980482899427 0.1082144341012489
-0.7116512419663877 0.6900980365803377 0.1315948696403479
-0.7535459698748478 0.6383815637340966 0.1569632134284455
-0.7960162169574516 0.5768152569642463 0.1834184878195682
-0.8375938523308663 0.5044521619717695 0.209677263477817
-0.8763759131610709 0.4209030752856561 0.2341065143181108
-0.9101471238283193 0.3266225346592879 0.2548527669847431
-0.9366289782283085 0.2231222971808956 0.2700788730051176
-0.9538298782610165 0.1130050603649909 0.2782775946217711
-0.9604127075392725 -0.0002576013979102098 0.2785809843449531
-0.9559603542691558 -0.1127885252323954 0.2709585755083064
-0.9410410858111037 -0.2208852367699068 0.2562252661088684
-0.9170535891364616 -0.3215352771425726 0.2358554222501194
-0.8859198761508998 -0.4127208642648801 0.2116777296770351
-0.8497391326296632 -0.493469041527114 0.1855578387783674
-0.8105002791766999 -0.5637015633207505 0.1591535263958442
-0.7699010316472021 -0.6239839981032841 0.1337773208717163
-0.7292727927227018 -0.6752646439273295 0.1103578472793269
-0.6895837508362076 -0.7186581505582287 0.08946906291502715
-0.6514866551637849 -0.7552933353492942 0.0713940874333541
-0.6153828475847765 -0.7862224485510081 0.05619797409967987
-0.5814811873246072 -0.8123802788934201 0.04379396365497801
-0.5498371942168545 -0.8345797040630007 0.03399672663434521
-0.5203671562550005 -0.8535293577729447 0.02656422614697192
-0.4928805910167703 -0.8698376634691111 0.02124057931309415
-0.4675146934475124 -0.8838055197191295 0.01782735888115704
-0.4473003490287633 -0.8942357530408168 0.01627316018077313
0 0 0
0 0 0
0 0 0
-0.3358863804611064 0.9418057219048723 0.01350265188688651
-0.3647996185811519 0.9309701690863372 0.0146895389444958
-0.3863348362188513 0.9221959980711079 0.01731864502164998
-0.4082069591277764 0.9126297057208429 0.02177380893506596
-0.431388703040099 0.9017196482905868 0.02838067610331087
-0.4563168517523592 0.8890272813789475 0.03748898199168262
-0.4834104169556827 0.8739967286335271 0.04943770945973489
-0.5130486881809985 0.8559291477793922 0.06454717296209925
-0.5455454544810527 0.8339514417212101 0.08309723188034673
-0.5811176819460658 0.8069808789453271 0.1052810559704708
-0.6198293675514905 0.7737024389689042 0.1311338669234142
-0.6615049799131727 0.732578155989151 0.1604381716350808
-0.7056167974513333 0.6819132429371935 0.1926116929508791
-0.7511621618096945 0.6200082371446834 0.2265947760609843
-0.7965636300805499 0.5454217219031935 0.2607710269739557
-0.8396449613197355 0.4573432475898675 0.2929735360307006
-0.8777471011846039 0.356022736257101 0.3206366130528933
-0.9080301224172397 0.2431300924135546 0.3411290883901695
-0.9279428747995252 0.1218674384512356 0.3522362113044685
-0.9357452843154455 -0.003310912371166614 0.3526610281001802
-0.9308973686443976 -0.1273685382867726 0.3423555819694294
-0.9141540001593543 -0.2455484301935414 0.3225343895186032
-0.8873322491807469 -0.3541211302991189 0.2953636819913892
-0.8528653617871693 -0.4507843681650296 0.2634656108141913
-0.8133240359262169 -0.534664971866336 0.2294283775906099
-0.7710478738423302 -0.6060371773932374 0.1954587318603572
-0.7279419796868173 -0.6659284294100827 0.1632170368345688
-0.6854201534954015 -0.7157486646470912 0.1338023252348219
-0.644443533089751 -0.7570110681357431 0.1078275260718694
-0.6056039063923156 -0.7911563663098707 0.08553076995870081
-0.5692154263557779 -0.8194631688038946 0.06688731847285322
-0.5353939373278106 -0.8430183615616608 0.05170468008330389
-0.504115212321501 -0.8627236224753806 0.03969639692722741
-0.4752541231726357 -0.8793184694841806 0.03053764285937375
-0.4486209119849319 -0.8934022968725993 0.02390843517613221
-0.4239944343726563 -0.9054543985226671 0.01952054858259573
-0.4006262715100496 -0.9160822924087318 0.01708286015625499
-0.3711066053411746 -0.9284484233610271 0.01622999169969483
0 0 0
0 0 0
-0.3057610539288933 0.9520170085013119 0.0131830734089078
-0.3209476413245992 0.9469755115765548 0.01516548721598191
-0.338783980572877 0.9406770538740409 0.018764189885273
-0.3581884606413515 0.9333312258251044 0.02436902876986342
-0.3792218720301245 0.9247381336126272 0.03240611079105332
-0.4021711430350732 0.9145394151761819 0.04331315965234316
-0.4274248607044256 0.9022179098099317 0.05753982681586304
-0.4554029678757102 0.8870750665468643 0.07553782602689982
-0.4865114634482162 0.8681905679715461 0.09773297099095142
-0.5210971344172408 0.8443723815518948 0.1244711122089012
-0.5593805276884606 0.8141122813138137 0.1559314549954451
-0.6013542669509694 0.7755694927580026 0.1920026237397719
-0.6466430538115124 0.7266166707948527 0.2321227577820092
-0.6943358119252362 0.6649946267649621 0.2750998485129554
-0.74282438679751 0.5886248852708039 0.3189556000744235
-0.7897166271592906 0.4961035518684973 0.3608724353724104
-0.8319204608603926 0.3873255984166899 0.3973502581010666
-0.8659869796610569 0.2640665213502696 0.4246591849465723
-0.8887173708551225 0.1302371702491318 0.4395676446530802
-0.89788561053936 -0.008453957110358543 0.440147658173409
-0.8927971581151612 -0.145464360648489 0.4263254088634844
-0.8744257364287353 -0.2746931261896678 0.3999041358816013
-0.8450741121482521 -0.3915603645579999 0.3640470105412885
-0.807744000745084 -0.4935153203725495 0.3224783059647651
-0.7654950139579508 -0.5799327258197938 0.2787389766945767
-0.7209923570497673 -0.6516218685258403 0.2357094854576564
-0.6762967129270369 -0.7102315457925931 0.1954326161241987
-0.6328453114627912 -0.7577444142107512 0.1591546873075619
-0.5915404151973024 -0.7961340601968017 0.127477430876048
-0.5528752265976411 -0.8271765829356733 0.1005379752007625
-0.5170550754854469 -0.8523751041718253 0.07817116285951133
-0.4840955617341664 -0.872953045508135 0.06003721718528678
-0.4538953236105548 -0.889881578795086 0.04571444985597338
-0.4262924316208422 -0.9039171479027879 0.0347642412556104
-0.401124211361379 -0.9156322250037757 0.02677677341178427
-0.3783154825253635 -0.9254292758472251 0.02140212808299766
-0.3580238195180722 -0.9335318836232389 0.01836210544948158
-0.3415506959832865 -0.9397025371344691 0.01738573485285375
0 0 0
0 0 0
-0.2635233817237654 0.9645515073467245 0.01399346133133488
-0.2739305017777658 0.9616116923949815 0.01627984167736316
-0.288372416610995 0.9572976279151985 0.02055725968771578
-0.3049482333292662 0.951981522888673 0.02716164700310764
-0.3233078316709208 0.9455879230141412 0.0365448468330286
-0.3436171432743662 0.9378194004185415 0.04921413462177221
-0.3662417104333408 0.9281956234156191 0.06572590213112618
-0.3916336103516884 0.916030037002028 0.08667229403312578
-0.4202763699639316 0.9003765619129708 0.1126490994536479
-0.4526366917892141 0.879959015685267 0.1441948541395682
-0.4890954908360938 0.8530971199303754 0.1816890332692052
-0.5298393931900303 0.8176531767144647 0.2251965808638401
-0.5747008578164766 0.7710416677936743 0.2742511085683237
-0.6229485726521554 0.7103674959891964 0.3275867770113456
-0.6730582347164037 0.6327754356249238 0.3828679416589035
-0.7225414074444366 0.5360756850014259 0.4365280912821807
-0.7679640576042879 0.4196165766832959 0.483893722629824
-0.805300902358524 0.2851845168539813 0.5197694181147132
-0.8306774874110835 0.1374961924957237 0.5395087663398874
-0.841327874951288 -0.01618200248196675 0.5402828422461915
-0.8363688999681308 -0.1674010363512996 0.5219808005996092
-0.8169950581349265 -0.3083966824176023 0.487247946385538
-0.7860074262950113 -0.4336242189217969 0.4406385849804272
-0.7469623788720655 -0.5403747408765178 0.3873529965966706
-0.7033528775426435 -0.6284750760631259 0.3321352261051671
-0.6580848479553526 -0.6994854187585318 0.2786475943477373
-0.6132846099488467 -0.7558410802039991 0.2293169175528538
-0.570337616942479 -0.8001948582227317 0.1854809736179844
-0.5300358423169179 -0.8350208249880058 0.1476557743393221
-0.4927464744856727 -0.8624324660263073 0.1158065344690086
-0.4585580706223537 -0.8841390183457069 0.08956948200025165
-0.42739123869968 -0.9014745730303569 0.06841288813146323
-0.3990782817727898 -0.9154555987318818 0.05174525840817943
-0.3734266106015524 -0.926840204495169 0.0389846357683265
-0.3502920402083958 -0.9361726134025169 0.02960277827739421
-0.3297142166358148 -0.9437967750459796 0.0231556205064552
-0.3122633276956152 -0.9497994104631373 0.01930528581339774
-0.3001229332831664 -0.9537347982924179 0.01778087297149208
0 0 0
0 0 0
-0.2136842787034434 0.9767799744802586 0.01548904417109142
-0.2227520009970961 0.9747131851739778 0.01776943161128137
-0.2348185884679251 0.971778807102605 0.02249845719529354
-0.2485668357042283 0.968151636061116 0.02994891951592027
-0.2638455745200373 0.9637119750728703 0.04055541773102652
-0.2808819110043546 0.95817214924892 0.05487699403435225
-0.3000642258370891 0.9510775167825468 0.07357321145316496
-0.321871769677584 0.9417617124760393 0.09738295948890498
-0.3468405250557638 0.9292738163949319 0.1270898278456599
-0.3755275546130112 0.9122831687378506 0.1634578715265723
-0.4084515961212046 0.8889708856914548 0.2071184637326916
-0.4459900184060818 0.8569304721680099 0.2583855053056448
-0.4882137788381162 0.8131250358798426 0.3169778890995568
-0.5346512551969133 0.7539857668900224 0.3816457763995681
-0.5839999632271518 0.6757747196013323 0.4497472304510898
-0.6338632830508227 0.5753374778744447 0.5169179092980869
-0.6806712353398457 0.4512673705496292 0.5771000170318414
-0.7199966655146159 0.3052276649722769 0.623250250046805
-0.7473920750421723 0.1428028458355647 0.6488547089953338
-0.7595765484924047 -0.02688911127040954 0.649861864303063
-0.7554481499684711 -0.1930901107647731 0.6261104549790407
-0.7363545730145858 -0.3460734478484365 0.5813906702853097
-0.7054883196335358 -0.4792697045244733 0.5220984401295157
-0.666813079404025 -0.5899656219749237 0.4553030661256983
-0.6240863684211999 -0.6786829635063746 0.3871764969584839
-0.5802965612598927 -0.7479496529758599 0.3222223108402546
-0.5375137213469515 -0.8011253399621622 0.2632056022091119
-0.4969956283489389 -0.8415919398213498 0.2114671421989247
-0.459389807695361 -0.8723279933209747 0.1673465764639962
-0.4249340288756658 -0.8957591445849937 0.130562728203169
-0.3936154981453728 -0.9137651894197136 0.1004988468815658
-0.36528330399355 -0.9277564646258456 0.0763940453733595
-0.3397240907736022 -0.9387681938149145 0.05746146908609055
-0.3167168829265207 -0.9475469472642121 0.04295577725499002
-0.296088382876998 -0.9546173676016173 0.03220793378412039
-0.2778085243750255 -0.9603204132228813 0.0246399620942244
-0.2622448590913267 -0.9647988014010832 0.01977136047930397
-0.2510346550170984 -0.9678242118672232 0.01725969014883321
0 0 0
-0.1234647144713801 0.9922203675177578 0.01597518586513978
-0.1531894001213997 0.9880602092708896 0.0164326061843831
-0.1672853290495556 0.9857252196768262 0.0190107858294644
-0.178383190339373 0.9836623646362385 0.02424437672100885
-0.1893949925171105 0.9813640531588008 0.03246739868195946
-0.2012349806769802 0.9785470871952888 0.04415971799672874
-0.214405038331431 0.9749031592979176 0.05995256065453586
-0.2293568232977405 0.9699984105231425 0.08061346779133986