# OOMMF: rectangular mesh v1.0
# Segment count: 1
# Begin: Segment
# Begin: Header
# Title: 
# Desc: time = 1.1799999999999999e-09
# Desc: stepsize = 3.057627525383088e-14
# Desc: step = 7550
# meshunit: m
# valueunit: (none)
# valuemultiplier: 384000.0000000001
# xmin: 0
# ymin: 0
# zmin: 0
# xmax: 9.357999999999999e-08
# ymax: 9.357999999999999e-08
# zmax: 2.3395e-08
# ValueRangeMaxMag: 1
# ValueRangeMinMag: 0
# meshtype: rectangular
# xbase: 1.16975e-09
# ybase: 1.16975e-09
# zbase: 1.16975e-09
# xstepsize: 2.3395e-09
# ystepsize: 2.3395e-09
# zstepsize: 2.3395e-09
# xnodes: 40
# ynodes: 40
# znodes: 10
# End: Header
# Begin: Data Text
0 0 0
0 0 0
0 0 0
0 0 0
0 0 0
0 0 0
0 0 0
0 0 0
0 0 0
0 0 0
0 0 0
0 0 0
0 0 0
0 0 0
0 0 0
0 0 0
-0.9927262006043264 0.1199329743082654 0.01052484238699516
-0.9960016760928133 0.08865083595637026 0.01103134191939803
-0.9988646307661877 0.04635748082873028 0.01097421411950173
-0.9999453022029389 -0.0001072615995330922 0.01045854183056794
-0.9988171898364107 -0.04764230849839474 0.009717598892650952
-0.995532225315819 -0.09398950601881488 0.009031119314439133
-0.9906581650014911 -0.1360894263122389 0.008721706363063996
-0.9858768576211852 -0.1672264999623739 0.009061970939627873
0 0 0
0 0 0
0 0 0
0 0 0
0 0 0
0 0 0
0 0 0
0 0 0
0 0 0
0 0 0
0 0 0
0 0 0
0 0 0
0 0 0
0 0 0
0 0 0
0 0 0
0 0 0
0 0 0
0 0 0
0 0 0
0 0 0
0 0 0
0 0 0
0 0 0
0 0 0
0 0 0
0 0 0
-0.9424188086947961 0.3340226909687886 0.01660213649654225
-0.9525345647959772 0.3039365032891456 0.01733507534753433
-0.96498739725877 0.2617395657956532 0.01707989545772869
-0.9771869399926777 0.2117973654965018 0.01573404831845059
-0.9884654603852304 0.1508217582386781 0.01374157440788076
-0.9948002748235079 0.1009636972857263 0.01336955651727859
-0.9985816338968457 0.05161050330817776 0.01307961743254872
-0.9999205173748691 0.001399095021738454 0.01253002258152388
-0.9987236189447987 -0.04912098162048668 0.01175849167383919
-0.9950181864499306 -0.0990944959887792 0.01091281350617363
-0.9889459982269719 -0.1479300500127236 0.01012486513935823
-0.9803955444046593 -0.1968211812097951 0.009273572055690146
-0.9666886960142282 -0.2558492555936204 0.007356861457196265
-0.9525363172116555 -0.3043836802271608 0.00501394098740794
-0.9384116812238176 -0.3455013975104175 0.003507258336111952
-0.9270684571735206 -0.3748772105574272 0.003339568623256293
0 0 0
0 0 0
0 0 0
0 0 0
0 0 0
0 0 0
0 0 0
0 0 0
0 0 0
0 0 0
0 0 0
0 0 0
0 0 0
0 0 0
0 0 0
0 0 0
0 0 0
0 0 0
0 0 0
0 0 0
0 0 0
0 0 0
-0.8967554087596467 0.4421759215084605 0.0176122485350976
-0.9108626961003637 0.412308107351035 0.01819817203410736
-0.9311935190391637 0.3640694455225101 0.01822275874805681
-0.9471698762345534 0.3201771966801672 0.01886235085692044
-0.9617602288987982 0.2732268394150714 0.0190881201741152
-0.974849818376512 0.2220746917553595 0.0187259951148915
-0.9858694990343578 0.1665336110818488 0.01810765732454252
-0.9935388589186306 0.1120858352804546 0.01781295450360422
-0.9981737924043534 0.0578250718157601 0.01747401575518281
-0.9998520516115774 0.003374412748252939 0.0168667787891817
-0.9985671445539125 -0.05107861125817217 0.01595723313677541
-0.9943448262768684 -0.1051634633841247 0.01479906839905345
-0.9872411297375465 -0.1586647220395422 0.01343345579688769
-0.9772187081957069 -0.2119077481522886 0.0117772078753522
-0.9639767796225113 -0.2658125797263621 0.009614614283887282
-0.9489370377551217 -0.3153813088916317 0.007288921616736734
-0.9326258308494682 -0.3608038972896921 0.005441262069407805
-0.9151801753557525 -0.4030218723102174 0.004314750905939694
-0.893566223535832 -0.4489184629954377 0.003408480266109045
-0.8785793336696828 -0.4775862962418798 0.003111927135892414
0 0 0
0 0 0
0 0 0
0 0 0
0 0 0
0 0 0
0 0 0
0 0 0
0 0 0
0 0 0
0 0 0
0 0 0
0 0 0
0 0 0
0 0 0
0 0 0
0 0 0
0 0 0
0 0 0
-0.8611563544896084 0.5079705284422793 0.01938234651013171
-0.881571109656594 0.4716484429799876 0.01949679084860692
-0.9013723611005894 0.4325624481036617 0.02043514459246544
-0.9217432225835279 0.3872053085766517 0.02148210025561322
-0.9402402250798139 0.3397561709403921 0.02267296737930902
-0.9568837085181312 0.2895072831897156 0.02364532411909853
-0.9714252821450458 0.2361042023245805 0.02424307847801625
-0.9834007539244974 0.1797800930532509 0.02453722320259577
-0.9921954195259851 0.1222331254509196 0.02464371145248839
-0.9976517373802095 0.06398299657786886 0.02443741089323868
-0.9997024161045374 0.005365865346485728 0.02379677969460211
-0.9983249248315722 -0.05322381971938828 0.0226841238427498
-0.9935559592675587 -0.1113566733013642 0.02112456189305711
-0.9854903927753087 -0.1686464281703928 0.01915901910160272
-0.9742620228395239 -0.224790900972303 0.01680957146087987
-0.9600783361733867 -0.279374586748048 0.01412192231597169
-0.9435943797354742 -0.3309093985571556 0.01134092051672187
-0.9252653838621594 -0.3792180455443372 0.008811546966521219
-0.9053526110737031 -0.4246075765935522 0.006712340976016258
-0.8838428846518747 -0.467757062826651 0.005008535318508193
-0.8632087089702744 -0.5048325267946807 0.003852875286007739
-0.8423165610458029 -0.5389737187969778 0.003184561842366805
0 0 0
0 0 0
0 0 0
0 0 0
0 0 0
0 0 0
0 0 0
0 0 0
0 0 0
0 0 0
0 0 0
0 0 0
0 0 0
0 0 0
0 0 0
0 0 0
-0.7895794469244836 0.6132359289968138 0.02249427442352727
-0.8096363796157904 0.5864885101287136 0.02280702281397137
-0.84012485246047 0.5419362043691185 0.02225719371947497
-0.8653489108858242 0.5006361631686576 0.02312346333235045
-0.8887392705931434 0.4577407619150105 0.02481740895082206
-0.9111597991924684 0.4111770241244425 0.02685656656588441
-0.9319530059108503 0.3614180960527587 0.02899232000597549
-0.9507358249150124 0.3084524809459867 0.03095897642745561
-0.9670944478643991 0.2523240707435176 0.03257134067355186
-0.9805456817118117 0.1933694577581544 0.03374046358062346
-0.990596915999455 0.1324161048138463 0.03440530770530276
-0.9969396521232621 0.07016969325438648 0.03446076280254743
-0.9994014576391396 0.007276878568803547 0.03381972068272133
-0.997924163934547 -0.05562372296248128 0.03245557701424719
-0.9925596054230209 -0.1179028718248341 0.03040300146290494
-0.9834651754221413 -0.1789602651111991 0.02773936270402416
-0.9708975008230462 -0.2382315549335364 0.02457171401249791
-0.9552216591372068 -0.295141332443757 0.02105174098465356
-0.9369544506429479 -0.3490176280164576 0.01740841044256553
-0.9165754594142007 -0.3996202337025136 0.01389589922223337
-0.8944950488052442 -0.4469499960814298 0.01069152307732251
-0.8710901018256296 -0.4910601728300467 0.007870270741088864
-0.8470114788536934 -0.5315465578009027 0.005459998176737244
-0.8214054667269068 -0.5703351848057099 0.003291838967598967
-0.7908187908620571 -0.6120497409327657 0.0008687022549206453
-0.7705394991981174 -0.6373921815480683 -0.0002950879665906799
0 0 0
0 0 0
0 0 0
0 0 0
0 0 0
0 0 0
0 0 0
0 0 0
0 0 0
0 0 0
0 0 0
0 0 0
0 0 0
-0.7431306680806035 0.6687640374095219 0.0226157561401556
-0.7681295395680509 0.6398691935248116 0.02333292996776792
-0.7934654210201446 0.608118229475591 0.024593589099535
-0.8213227873200443 0.5698670417733961 0.02608512467424597
-0.8482082804136698 0.528902699050553 0.02836631760952767
-0.874078647607222 0.4847732082002252 0.03132817275856093
-0.8988683976993166 0.4368445847794306 0.03467581817851676
-0.9220947626115107 0.3850817437164303 0.03812216442876969
-0.9432337584515753 0.3295412761053689 0.04138386473203755
-0.9617310712119439 0.2704046736337288 0.04421152725888024
-0.977012618340823 0.2080701783524831 0.0464019879226573
-0.9885383527780356 0.1432078479797148 0.04778532582191283
-0.9958952492035293 0.07660177553010961 0.04821639347228238
-0.9988249953190753 0.009094173589533662 0.04760173035270748
-0.9972335107315534 -0.0584497652130154 0.04592330585403825
-0.9911913256995362 -0.1251792181313126 0.04324256243596655
-0.9809244522407801 -0.1902943866644566 0.03968961325237474
-0.9667964092394158 -0.2530771920138923 0.03544908975043937
-0.9492850409005615 -0.312909418889006 0.03075071857637269
-0.928951842778948 -0.369296422443492 0.02585780671352146
-0.9063596130315393 -0.4219834237251886 0.02102954984029831
-0.8820365716367548 -0.4708929452409646 0.01647180674877682
-0.856472607854989 -0.5160455466532721 0.01231526586798097
-0.8301122354343579 -0.5575296969194826 0.008620535658651528
-0.8029825822893787 -0.5959782760928747 0.005372798641808081
-0.7750622595998 -0.6318795059606361 0.002604551975623112
-0.7497418524062335 -0.6617298834941832 0.000846192202456141
-0.7250351328159882 -0.6887118541783829 0.0001951836963447592
0 0 0
0 0 0
0 0 0
0 0 0
0 0 0
0 0 0
0 0 0
0 0 0
0 0 0
0 0 0
0 0 0
-0.6899217317777014 0.7235117099956562 0.0232122708931809
-0.7169206187122806 0.6967444444570644 0.02391663821311208
-0.7439270534631829 0.6677675449581761 0.02567187227523513
-0.7715738986478035 0.6355123318417344 0.02824526513435057
-0.800230746158903 0.5988640980837617 0.03150468105357215
-0.8288827610006363 0.5582933015479167 0.03552404766757709
-0.8570781618512789 0.5136156286799322 0.04019963250267559
-0.8844027026787447 0.4645223803260588 0.0452859544532712
-0.9102834951813384 0.410896995355739 0.05047392998440906
-0.934062568500337 0.3527820296589097 0.05542524403458039
-0.955034358431077 0.2904017403180605 0.05980136650932336
-0.9724837482101846 0.2242101199147229 0.06328650405019366
-0.9857470773864373 0.1549149939336355 0.06560521380681654
-0.9942898543789459 0.08342463364579628 0.06654333911188041
-0.9977629418543008 0.01078267043520146 0.06597610082852777
-0.9960351359958994 -0.06190485355309347 0.06388894245641631
-0.9892015720694433 -0.1335453913187027 0.06038110857607468
-0.9775687599173539 -0.203130859887818 0.05565225417610291
-0.9616196264336397 -0.2697959723414152 0.04997826893737856
-0.9419643875558069 -0.3328587163777238 0.04368257670956502
-0.9192829434037841 -0.3918445381064309 0.03710428442959586
-0.8942601826002243 -0.4465027789682902 0.03056131851551699
-0.86754392270137 -0.4967657709109724 0.02431688785896977
-0.8397213602039321 -0.542700146197304 0.01856309604248869
-0.8112915231763441 -0.5844876691864676 0.01342493914984528
-0.7825986327689167 -0.6224617854902987 0.008983629135871543
-0.754030675846256 -0.656817467419195 0.005343629466228713
-0.7265687861392999 -0.687088430979761 0.002699448431388332
-0.699927983364567 -0.7142125985190697 0.001087299336958078
-0.6735507537190391 -0.7391408855426794 0.000365354208350907
0 0 0
0 0 0
0 0 0
0 0 0
0 0 0
0 0 0
0 0 0
0 0 0
0 0 0
-0.6355485176960294 0.7717064201383848 0.02339407556579536
-0.6613914544705768 0.7496448260695999 0.0243716782428604
-0.6883249544116314 0.7249225563089218 0.02638265507417834
-0.7164378624160177 0.6970268998656305 0.02950068067816346
-0.7456582030863534 0.6654771475847355 0.03367506811446178
-0.7758441451715503 0.6297283364045477 0.03883406664497582
-0.8064903008659726 0.5895388816036533 0.04491438173487543
-0.83711353997046 0.5445751379343426 0.05175751483519683
-0.8671669782454129 0.4944994506102172 0.05909082151157121
-0.8959678346120258 0.4391044558027167 0.06655010319178223
-0.9227155941951134 0.378369094354818 0.07370726332101081
-0.9465313563256916 0.3125091777281809 0.08010246767673493
-0.9665145546752218 0.242026312502574 0.0852811799716866
-0.9818221093449944 0.1677304026188359 0.08883612800357994
-0.9917610491561895 0.09070996911920078 0.09045287656568601
-0.995870595535833 0.01225932659241096 0.08995257560851423
-0.993976597403435 -0.066225537449098 0.08731953964529944
-0.9862080818555532 -0.1433651679722089 0.08270458206828707
-0.9729740984618612 -0.2179081473475218 0.07640316120356867
-0.9549074995980332 -0.2888186118765993 0.06881479960812151
-0.9327885265870275 -0.3553283056016507 0.06039337634096659
-0.9074630521074085 -0.4169515105796624 0.05159696585307792
-0.8797687309586854 -0.4734674257073011 0.04284363221582428
-0.8504825655544593 -0.5248719345925394 0.034479819677442
-0.8202887463846549 -0.5713229512724917 0.02676673129055646
-0.7897578823471889 -0.6130962866583914 0.01988543578034662
-0.7593420011242441 -0.6505420006185099 0.01395817896054372
-0.7294566957533906 -0.6839667091371475 0.009081289151068308
-0.7005816385615949 -0.713552273341623 0.005340498043422679
-0.6728920952149696 -0.7397355038057151 0.002759095234381983
-0.6465134817062191 -0.7629014290921649 0.00131432919553843
-0.6214196809334109 -0.7834772166603488 0.001015442154868141
0 0 0
0 0 0
0 0 0
0 0 0
0 0 0
0 0 0
0 0 0
0 0 0
-0.6086655954646356 0.793036333087076 0.02489110888417845
-0.6297141464522739 0.7763632477477123 0.02683656655587406
-0.6562417781801752 0.7539482380042537 0.0301460276189457
-0.6851626420205084 0.7275567528626926 0.03483281991700962
-0.7157115162562961 0.6971982958288194 0.04088473787983878
-0.7475498039800245 0.6624514138442347 0.04824328829175295
-0.7802850653891743 0.6228398109555681 0.05679600883375126
-0.8134417484773157 0.5778515819862186 0.06633303121516088
-0.8464091658634461 0.5270064531563711 0.07652269123525458
-0.8784026934138723 0.4699522289149858 0.08691151098151835
-0.9084698208571101 0.4065523646330742 0.09694204146347174
-0.9355308623299684 0.3369696672667097 0.1059879661579946
-0.9584529867750664 0.261737833349934 0.1134071370559895
-0.9761563003904211 0.1817979008170691 0.1186102881987576
-0.9877390698328611 0.09847472561174227 0.1211373532045563
-0.9925955733231927 0.01338678305409337 0.1207262268882125
-0.9904982396710782 -0.0716998173705118 0.117355755706867
-0.981623492202968 -0.1550444699298589 0.1112498624692095
-0.9665161452538606 -0.2350961394141078 0.1028413642276287
-0.9460039611076362 -0.3106157326194753 0.09270583702188356
-0.9210853872119587 -0.3807391203303083 0.08148270807170414
-0.8928161708828667 -0.4449799691241739 0.06980051638995517
-0.8622148481834424 -0.5031860123106208 0.05821849007779545
-0.8301981850631968 -0.555467381801278 0.04719069052903153
-0.7975455175457573 -0.6021197365545596 0.03705361377972293
-0.7648863847806735 -0.6435549176319981 0.02803366491957196
-0.7327119993053914 -0.6802369646969125 0.02026815072537294
-0.7014232840603359 -0.7126107450138968 0.01383122079758499
-0.6713869201542529 -0.74105533013674 0.008752206676820203
-0.6429603996231846 -0.7658829587337175 0.005021756433865527
-0.6169400757246097 -0.7870057475931531 0.002626065546476302
-0.5963736916150976 -0.802705343212742 0.001597475224874524
0 0 0
0 0 0
0 0 0
0 0 0
0 0 0
0 0 0
0 0 0
-0.5304230433041626 0.8472783165799048 0.02776417449650293
-0.5640030943655856 0.8253009372608026 0.02790828734416447
-0.5913530823146783 0.8058345566448367 0.03053193989820855
-0.619576101037518 0.7841485422377538 0.03516416826191357
-0.6495431271199616 0.7591842772910096 0.04162882565420431
-0.6812972731925347 0.7303061047657695 0.04987001987431727
-0.7147025837244785 0.6968654054182012 0.05982326929281155
-0.7494790131067067 0.6581714829377725 0.07135480334279898
-0.7851870449060907 0.6135058244648174 0.0842134660216797
-0.8211871079176984 0.5621819299529143 0.0979959765714
-0.8566048431623391 0.5036414770036587 0.1121311968740044
-0.890327926596659 0.4375709767989924 0.1258881383819346
-0.9210460555326505 0.364027158695687 0.1384138407807905
-0.9473417127699085 0.2835500064179078 0.1488054874881289
-0.9678314711426688 0.1972292099557367 0.1562142189624649
-0.981340132274451 0.1066883941317168 0.1599660318478824
-0.987071136574299 0.01396785435971264 0.1596730108268355
-0.98472836678049 -0.07868221986450659 0.1553034189418289
-0.9745543665837965 -0.16905451193426 0.1471881740056706
-0.9572754652752958 -0.2552219348221991 0.1359611987575073
-0.933973595746739 -0.3357062866370782 0.1224524869500411
-0.9059236824361155 -0.4095511552311089 0.1075645520152975
-0.8744371223111344 -0.4763044786580971 0.09216161204351865
-0.8407398821753024 -0.5359374738488593 0.07699009445611371
-0.8058961727479074 -0.5887342818271539 0.06263628462592197
-0.7707744069158026 -0.6351809736500155 0.04951711175554151
-0.7360454697667903 -0.6758705826321606 0.0378948805018308
-0.7022053248984463 -0.7114274222670773 0.0279052778285506
-0.6696149499794146 -0.7424500732948708 0.019588451406541
-0.6385380430400495 -0.7694818988221797 0.01291413859288295
-0.6091507762059103 -0.7930161203861732 0.0077951687216387
-0.5815084258512132 -0.813530131364063 0.004083629122987847
-0.554951024347961 -0.8318816641404703 0.001502478628776184
-0.5229903795128023 -0.852338460793015 -0.0004595541841675801
0 0 0
0 0 0
0 0 0
0 0 0
0 0 0
-0.4648218491569615 0.8849622753049143 0.02797176850775105
-0.4939147801509446 0.8690359659359651 0.02871723973830917
-0.5224132426107754 0.8521378417240323 0.03074902676187994
-0.5500759760927588 0.8343862696025446 0.03487081335942264
-0.5787792931368321 0.8144426035439275 0.04120406980647895
-0.6093054117985548 0.7913724473255066 0.04976509587081274
-0.6419046700615513 0.7643887580189309 0.06056584158952048
-0.6765885219846181 0.732676082781982 0.07357805133271286
-0.7131835886110945 0.6953454510062244 0.08867847935520151
-0.7513094881374509 0.6514477680935058 0.1055928902939535
-0.7903283623634496 0.6000360343462731 0.1238460218574074
-0.8292955267940838 0.5402757973317777 0.1427269843331465
-0.8669386826605112 0.4715984076651179 0.1612831745551346
-0.9016899389523533 0.3938827352588045 0.1783581925708588
-0.9317908617993637 0.3076323209347867 0.1926866497281926
-0.9554764919651032 0.2140953098955958 0.2030464764106188
-0.9712173025227987 0.1152672322302103 0.2084476348014634
-0.9779658618854781 0.0137386143011309 0.2083123219199428
-0.975337284040503 -0.0876013782217233 0.2025911668709891
-0.9636651356425229 -0.1859358278546873 0.1917742794721689
-0.9439167812041496 -0.2788645719893417 0.176792705308782
-0.9175020439902891 -0.3646344376422297 0.1588449752399357
-0.886039300866857 -0.4422178723823544 0.1392038457263092
-0.8511421250671489 -0.5112568610160756 0.1190525304231974
-0.8142653369431937 -0.5719231361497359 0.09937749941227739
-0.776620647921434 -0.6247496598254898 0.08092114538256372
-0.7391511507607217 -0.6704746250735988 0.06418218959740553
-0.7025464439743595 -0.7099180078422344 0.04944609388308351
-0.6672807421788122 -0.7438951838085135 0.03682888301035867
-0.6336594346310572 -0.7731642058035465 0.02632169765078697
-0.6018568986106373 -0.7984049403623494 0.01782764145303639
-0.571924799083492 -0.8202297781356733 0.01118638694176373
-0.5437302036705701 -0.8392372773702048 0.006185296161496772
-0.5166675470244543 -0.8561822592962056 0.002566070571431539
-0.4890936379524987 -0.8722312779593279 0.0001051847293770431
-0.4612476125663031 -0.8872708633606894 -0.001027099343452461
0 0 0
0 0 0
0 0 0
0 0 0
-0.4342913411836907 0.9003262925420726 0.02834780291868525
-0.4542278966881011 0.8903718495687502 0.0302487580873301
-0.4788982375874077 0.8772150431802391 0.03391527758939079
-0.5053455839707591 0.8619998503492955 0.03977560507451323
-0.5336038576703671 0.8443653746988158 0.04810443939004232
-0.5640510830497912 0.8236236396514534 0.0590802498103181
-0.5969532457583995 0.798963698910237 0.07282740007842696
-0.6324241104406929 0.7694465557195389 0.08939654593235689
-0.6704012928883644 0.7339916197215203 0.1087125046725887
-0.7105927862464624 0.691394213449684 0.1305064509623246
-0.7524011277820449 0.6403916780387324 0.154243449167356
-0.7948451901990322 0.579791968154023 0.179059758967636
-0.8365084929646646 0.5086716892440525 0.2037318182307011
-0.875550781167001 0.4266323867877638 0.2267060566937499
-0.9098198472584207 0.3340727851666435 0.246217829869539
-0.9370837961729177 0.2323968179202464 0.2605104181615329
-0.9553625166763446 0.1240575097037717 0.2681272011861888
-0.9632827910717678 0.01236207101117948 0.2682041081439633
-0.9603449713765149 -0.09895454586226496 0.2606636411259405
-0.9470047388023474 -0.2062782466002772 0.2462342577006952
-0.9245433015377685 -0.3066172041552889 0.2262864858926313
-0.8947836659848991 -0.3979138980007616 0.202550539037701
-0.8597581282957291 -0.4791165320037417 0.1768143364948991
-0.8214229071692375 -0.5500533998437547 0.1506839901846377
-0.7814711420594428 -0.6112010295899284 0.1254438342706462
-0.7412482019758959 -0.6634341007867923 0.1020112590880086
-0.7017454595457138 -0.7078127897432845 0.08095903089095653
-0.6636407284665659 -0.7454297393591149 0.06257385395967723
-0.6273589566640928 -0.7773150330871498 0.04692631276867378
-0.5931339447741479 -0.8043882391988039 0.0339364729355541
-0.5610579405781266 -0.8274449486163648 0.02342742673646057
-0.5311092408098483 -0.847167628044978 0.01516523389306697
-0.5031554064106897 -0.8641502247126288 0.00888966415597642
-0.4769748511158883 -0.878906177164788 0.004350074086032699
-0.4526725794348943 -0.8916757485917257 0.001376663046689907
-0.4331809699145215 -0.9013069659778593 -1.958825267652379e-05
0 0 0
0 0 0
0 0 0
-0.3551309365453129 0.9343845381092138 0.02841747439304605
-0.3851207928165382 0.9223962973233533 0.02944563846358738
-0.4078899201277064 0.9124563414206436 0.03239194436069828
-0.4313367175297377 0.9014096763968648 0.03753973106949723
-0.4564502619189439 0.8886001440202519 0.04519892079811758
-0.4836555301838875 0.8734841317584746 0.0557027799008798
-0.5133455949378981 0.8553750361873663 0.06935306500304551
-0.5458514626762087 0.8334152848357095 0.0864010630516558
-0.5813998512889175 0.8065498860311446 0.1070116548062478
-0.6200608733163427 0.7735056984957149 0.1312000296373055
-0.6616691415923426 0.732799044932716 0.158743525254263
-0.7057184970000178 0.682796849844579 0.1890763465755429
-0.7512448365959531 0.6218592595161819 0.2211837626090692
-0.7967288490414119 0.5485864170016024 0.2535272848955123
-0.840068711299179 0.4621696721229398 0.2840488592934499
-0.8786838380977607 0.362798681296951 0.3103092481944114
-0.9097948400483152 0.2520093437990086 0.3297948448042404
-0.9308670679594947 0.1328073991288084 0.3403655336915503
-0.9401145755576438 0.009427853005798554 0.3407281913956804
-0.9368909341470683 -0.1132793650658087 0.3307614895409082
-0.9218085969994643 -0.2306634505310747 0.3115498083565084
-0.8965427562202298 -0.3390037198599172 0.2851097406090707
-0.8634166811295519 -0.4359255846778281 0.2539301466358858
-0.8249377780827312 -0.5204382583096113 0.220503246188314
-0.7834269745762568 -0.5926890792550823 0.1869808301352187
-0.740803145068493 -0.6535940847924823 0.1550015244470397
-0.6985119252204772 -0.7044782829058042 0.1256639934065098
-0.6575523502664927 -0.7467974681115508 0.09959140666336648
-0.6185526078351827 -0.7819579528339947 0.0770352603679763
-0.5818586432145219 -0.8112203618426119 0.05798313417276466
-0.5476149023579245 -0.8356630245028189 0.04225196083403952
-0.5158267657968812 -0.856182757594219 0.0295606712692288
-0.4864022250811454 -0.8735155164978227 0.01958361237495173
-0.4591770577589553 -0.8882638470808132 0.01199031263237715
-0.433941108577897 -0.9009179482576173 0.00647802388619946
-0.4104681493356039 -0.9118706589265207 0.00279280681693524
-0.3880426983527125 -0.9216411368260977 0.0006922174826144701
-0.3595002090812432 -0.9331449971570223 -0.0001181158862425174
0 0 0
0 0 0
-0.3239348184073623 0.9456488104182419 0.02854051117188812
-0.3399432657999706 0.9399437803631183 0.03072890811499282
-0.3590645269671163 0.9326593491183901 0.03491710148253137
-0.3801625356953336 0.923987004765234 0.04152663577349718
-0.4032867016513257 0.9136515533862287 0.05099681623518436
-0.4287241004210179 0.9011822359642454 0.06376694520416809
-0.456859893186519 0.8859098834106701 0.08026653395341228
-0.4880918307787025 0.8669413595655749 0.100891247398802
-0.5227652725713099 0.8431201925468184 0.1259555902421942
-0.5611018945267198 0.8129877160212491 0.1556137447562971
-0.6031012221584738 0.7747683888703605 0.1897441947417104
-0.6484066768672425 0.7264130341834772 0.2278000991271367
-0.6961444346444901 0.6657438600055506 0.2686410969647284
-0.7447667807334044 0.5907474912056081 0.3103866040122872
-0.7919636934012433 0.5000387749671333 0.3503637136799833
-0.8347337937873699 0.3934509565224222 0.3852477622529882
-0.8697003237614758 0.2725952568057553 0.4114768192938549
-0.8936831820081217 0.1411274540683089 0.4259265334585706
-0.9043962809182875 0.004466458742224988 0.4266701510622383
-0.9010095483089973 -0.1310855187482813 0.4135195045345624
-0.8843218521149547 -0.2595492268808611 0.3880838320485959
-0.8564727687587343 -0.3763285831647086 0.3533145820200319
-0.8203517731167005 -0.4787518744811385 0.3127612684222282
-0.7789701222610846 -0.5660254429360417 0.2698531944847194
-0.7349984194674186 -0.6387936660512769 0.2274202620550014
-0.6905360984875674 -0.6985729819290872 0.1874984949386832
-0.6470727301781247 -0.7472547227869124 0.1513514490597355
-0.6055628696997158 -0.7867578073386394 0.1196067031262905
-0.5665447449428627 -0.8188311214468957 0.0924264384667341
-0.5302594396482952 -0.8449684528403624 0.0696652019909457
-0.4967497624640771 -0.8663943089744215 0.05099583187493889
-0.4659337694707867 -0.8840868871578124 0.03600136695116357
-0.4376560689703921 -0.898815692906727 0.02423871857138651
-0.4117279203465797 -0.9111786669135912 0.01528255766063611
-0.3879752433433379 -0.9216281926751115 0.008756998291914894
-0.3663187177863678 -0.9304792330457794 0.004358195714847827
-0.3469119811010591 -0.9378958397383685 0.001863107618536222
-0.3310299602387045 -0.9436196297766277 0.001076905093888212
0 0 0
0 0 0
-0.2800372554144719 0.9595203334456559 0.02999775465374615
-0.2912508257023553 0.9560881981269524 0.03268507197563995
-0.3070121242833718 0.9509544525307322 0.03780455997609519
-0.3253338957709841 0.9444928486898604 0.04572871128936702
-0.3458560647167901 0.9365581364981125 0.05694242230356543
-0.3687617882949547 0.9267330675831642 0.0719761414734412
-0.3944384899785494 0.9143666300381343 0.09138896813153531
-0.4233473232594177 0.8985441505135101 0.1157387293305042
-0.4559468329450673 0.8780289779186847 0.1455252536930682
-0.4926154072961074 0.8511960156620868 0.1810950121220297
-0.5335431079981163 0.8159826340552809 0.2224951523694734
-0.578576771148162 0.769897742921269 0.2692700973604427
-0.6270174952667461 0.7101510468867877 0.3202101672886338
-0.6773979294666096 0.6339797817297744 0.3730974155796542
-0.7273116458128939 0.5392350324749478 0.4245507621200092
-0.773418893771994 0.4252048943039122 0.4701319098045815
-0.8117696970097998 0.2934773812637941 0.5048771986366216
-0.8385027945496534 0.1484429382210952 0.5242878575980081
-0.8507714036599112 -0.003006813777033585 0.5255273330526719
-0.8475244915434168 -0.1527231876550109 0.5083088275709605
-0.829752820973538 -0.2930696879899743 0.474995172678538
-0.8000846885836158 -0.4184403385160847 0.4298513396473276
-0.7619788052685768 -0.5259370414996452 0.3778604619433907
-0.7189108479169989 -0.6151571786300098 0.3236492520109182
-0.673827341992412 -0.6874579214828264 0.2708474097604634
-0.6289230068807949 -0.7451278970611362 0.2219014836301633
-0.5856558221244101 -0.7907307156683361 0.1781914512832231
-0.5448809176236477 -0.8266963178028521 0.140278236875207
-0.5070144017454322 -0.8551238471305684 0.1081647007638686
-0.4721794330407222 -0.8777255031324361 0.08151395073392756
-0.4403185273850044 -0.8958472736568627 0.05981017240458978
-0.4112725030401491 -0.9105226160624726 0.04246756270191377
-0.3848355729207705 -0.9225325873855448 0.0288999485548648
-0.3608010976708293 -0.9324580134231099 0.0185639737812639
-0.339022608979569 -0.9407140704753139 0.01098672883308387
-0.319538798890143 -0.9475555258896442 0.005786307963073486
-0.302906108265767 -0.9530166114112241 0.002688484620562633
-0.2912514096106557 -0.9566453910135825 0.001487364203974649
0 0 0
0 0 0
-0.2280569118888496 0.9731147134077966 0.03221489545198507
-0.2380148450294996 0.9706294621122377 0.03503399528016703
-0.2514230826672919 0.9670158903200756 0.04082525407816356
-0.2668992531747349 0.9624319218933639 0.04989573504232852
-0.2843085899065351 0.9566785842640805 0.06272728366374303
-0.3039195848422443 0.9493392149894804 0.07992459466568733
-0.326168990661237 0.9397730980335735 0.1021778534879682
-0.3515774881792977 0.9270573870075235 0.1302223905490834
-0.3806964372986738 0.9099008358961785 0.1647746687556427
-0.4140427364441577 0.886542596733579 0.2064239244242676
-0.4519960586743555 0.8546585046962849 0.2554572435715185
-0.4946377944776303 0.8113199719116971 0.3115980671498266
-0.5415215153513341 0.7530847206960074 0.3736547227933974
-0.5913915344937191 0.6763346409088914 0.439121288980396
-0.6419215784768839 0.5779798010658943 0.5038611283335659
-0.6896237612164251 0.456555444539857 0.5621175980404134
-0.7301320421291516 0.3134879614174323 0.6071511336583807
-0.7589913767035236 0.1539540421666087 0.6326375289138729
-0.7728105654099573 -0.01339780483225302 0.6344953339595322
-0.7702896548137127 -0.1781662885882405 0.6122994539419927
-0.7525587637602308 -0.330737909617416 0.5694451178380358
-0.7226524814590753 -0.464409459251155 0.5119543389786727
-0.6844768636362718 -0.5761912880486276 0.4466486569144873
-0.6418217592297508 -0.6663109261493714 0.3795979176354822
-0.597759598001576 -0.7370636350084382 0.3153104199755242
-0.5544582103651479 -0.7916611446483915 0.2566100641297515
-0.5132626381777309 -0.8334105949142085 0.204910332915595
-0.4748873793672111 -0.8652656311282649 0.1606155798979266
-0.4396161237374344 -0.8896556101681433 0.1234931538443361
-0.4074643452637415 -0.9084776301420369 0.09295807049577841
-0.3782952608259276 -0.9231642973794417 0.06826694427440388
-0.3518967519283779 -0.9347742460048296 0.04863933581330351
-0.3280314880694483 -0.9440786950251929 0.03332807276863165
-0.3064751692938834 -0.9516322638636613 0.02165652280510044
-0.2870612111764452 -0.9578235424390098 0.0130354358384375
-0.2697689231769326 -0.962899881712483 0.00696748778571517
-0.2549677596941413 -0.9669447526494069 0.003047431759249237
-0.2442568759648118 -0.9697100535485982 0.0009952842231668261
0 0 0
-0.1336715858119059 0.9904625841276989 0.03340324220207482
-0.1648938030548758 0.985729417787088 0.03387548705520742
-0.1801639712934385 0.9829367335334289 0.03709880481106208
-0.1925928537698459 0.9803102779792104 0.04358613959860187
-0.2052228955301121 0.977240767070565 0.05370331764024984
-0.2190393370262623 0.9733442268879918 0.0679910642578304
-0.234610215222594 0.9681750321718927 0.08715018067773433