# OOMMF: rectangular mesh v1.0
# Segment count: 1
# Begin: Segment
# Begin: Header
# Title: 
# Desc: time = 1.6599999999999999e-09
# Desc: stepsize = 2.969914015294601e-14
# Desc: step = 10622
# meshunit: m
# valueunit: (none)
# valuemultiplier: 384000.0000000001
# xmin: 0
# ymin: 0
# zmin: 0
# xmax: 9.357999999999999e-08
# ymax: 9.357999999999999e-08
# zmax: 2.3395e-08
# ValueRangeMaxMag: 1
# ValueRangeMinMag: 0
# meshtype: rectangular
# xbase: 1.16975e-09
# ybase: 1.16975e-09
# zbase: 1.16975e-09
# xstepsize: 2.3395e-09
# ystepsize: 2.3395e-09
# zstepsize: 2.3395e-09
# xnodes: 40
# ynodes: 40
# znodes: 10
# End: Header
# Begin: Data Text
0 0 0
0 0 0
0 0 0
0 0 0
0 0 0
0 0 0
0 0 0
0 0 0
0 0 0
0 0 0
0 0 0
0 0 0
0 0 0
0 0 0
0 0 0
0 0 0
-0.9846093411207794 0.1732664260294334 0.02287336854708787
-0.9896770258530825 0.141309546593559 0.02389553389483764
-0.9948729871723192 0.09810071830526496 0.02457617673309951
-0.9984142269516205 0.05049857776775424 0.02487820459822506
-0.9996870808261819 0.001637485766719951 0.02496115120722701
-0.9986205498021201 -0.04614291185698006 0.02505652007501649
-0.9956511368406342 -0.08961889217404248 0.02544145973503173
-0.9922143381942665 -0.1217325613561841 0.02630381317177339
0 0 0
0 0 0
0 0 0
0 0 0
0 0 0
0 0 0
0 0 0
0 0 0
0 0 0
0 0 0
0 0 0
0 0 0
0 0 0
0 0 0
0 0 0
0 0 0
0 0 0
0 0 0
0 0 0
0 0 0
0 0 0
0 0 0
0 0 0
0 0 0
0 0 0
0 0 0
0 0 0
0 0 0
-0.9216115091081739 0.3873582632444625 0.02420335050333347
-0.9335694687028187 0.3574891844652681 0.02548588033193069
-0.9485456548731561 0.3155631904935164 0.02609623395831886
-0.9636834845564174 0.2657939434538599 0.02584030217405806
-0.9784705644067329 0.2048416037793827 0.02520460177545741
-0.9876394632124607 0.1546037509383984 0.02580641201677734
-0.9941768661282018 0.1044642816706775 0.02644943686614553
-0.9982275801110135 0.05312156483639958 0.02682904498936876
-0.9996358177514951 0.001174166928063325 0.02696021513868021
-0.9983615147522569 -0.05047021191946652 0.02696374548134433
-0.9945023268124674 -0.1011853554533086 0.02695636856802076
-0.9879753102228984 -0.1522656115969962 0.02683225512251306
-0.9764028071569909 -0.2144209411956484 0.02571416249306079
-0.9637777842766413 -0.2656232158961612 0.02401436469675074
-0.9508026019280328 -0.3089417806573065 0.02300844043335063
-0.9402216290592283 -0.3397722905309734 0.02319652638964892
0 0 0
0 0 0
0 0 0
0 0 0
0 0 0
0 0 0
0 0 0
0 0 0
0 0 0
0 0 0
0 0 0
0 0 0
0 0 0
0 0 0
0 0 0
0 0 0
0 0 0
0 0 0
0 0 0
0 0 0
0 0 0
0 0 0
-0.8696745224728881 0.4931108875552936 0.02253613844437358
-0.8855156593394247 0.4640043929726157 0.02370528141106669
-0.9085044212186023 0.4171368671244815 0.02483043921932077
-0.9269399608211443 0.3742809707583149 0.02638302410846852
-0.9442376211343997 0.3281035214034439 0.02762958698766065
-0.9603058147589508 0.2774968882260416 0.02842919564480581
-0.9745590544510306 0.2222366028705228 0.02907820028959561
-0.985394225439488 0.1676298737478764 0.02997408710506203
-0.993151622682847 0.1127051098852097 0.03078006770931797
-0.9978780924322576 0.05710707336961886 0.03127450742881826
-0.9995062383349247 0.001066785364359764 0.03140288997137363
-0.9979989373781933 -0.05499958306425939 0.03119562236522971
-0.9933638055639821 -0.1108470130042876 0.03068044170916833
-0.9855392877576765 -0.1668099671700855 0.02977829979710014
-0.9742228641562104 -0.2238062216406751 0.02829463041275427
-0.96068882745262 -0.2763571588785464 0.02652729809625408
-0.945535953066868 -0.3245466813110169 0.02512395486252625
-0.9289531013917279 -0.3693950376152348 0.02436065680413334
-0.9080043988543205 -0.4182829010229291 0.02382071310951363
-0.893393747294717 -0.4486436372709811 0.0238012401140612
0 0 0
0 0 0
0 0 0
0 0 0
0 0 0
0 0 0
0 0 0
0 0 0
0 0 0
0 0 0
0 0 0
0 0 0
0 0 0
0 0 0
0 0 0
0 0 0
0 0 0
0 0 0
0 0 0
-0.8305128134316164 0.556548379886453 0.02241355776454426
-0.8527098830345229 0.5218617834533681 0.02336951745585673
-0.8744268668566757 0.4845065157563438 0.02512151884071431
-0.8971091396170239 0.4409725187016292 0.02717405684736669
-0.9181402233111255 0.3951598657440574 0.02944844381854875
-0.9376084476575373 0.3462514372263913 0.0316281694045204
-0.955263718449783 0.2938449841560954 0.03356119038110923
-0.9705992557462602 0.2381017763397669 0.03527929773468889
-0.9828679445282457 0.1805966424247684 0.03681652297163682
-0.9918299789763291 0.1217726535638187 0.03800938894326167
-0.997328264808669 0.06195606837786212 0.03870113441342844
-0.9992451311379198 0.001574340419892592 0.03881609652454696
-0.9975279017517557 -0.05888702670742543 0.03834583826568274
-0.9921961458426238 -0.1189739453639578 0.03730963011845877
-0.9833270647680032 -0.1783022661055921 0.03572373995472921
-0.9710915293261576 -0.2363250677128312 0.03364080916847127
-0.956115449094967 -0.291312512781375 0.03130923025131822
-0.9388960099918517 -0.3429688640715611 0.02909709090000311
-0.9197396534084781 -0.3915838147240313 0.02722289467025375
-0.8986856971517909 -0.4378393581466488 0.02570436135229976
-0.8782595165899979 -0.4775452736064458 0.02471301631220971
-0.8573935511738644 -0.5140907537533541 0.02422798610651765
0 0 0
0 0 0
0 0 0
0 0 0
0 0 0
0 0 0
0 0 0
0 0 0
0 0 0
0 0 0
0 0 0
0 0 0
0 0 0
0 0 0
0 0 0
0 0 0
-0.7537112349887705 0.6568185591631229 0.02255558889901192
-0.7749863258099207 0.6315438660408208 0.02342093238649205
-0.8073876848609088 0.5895329494806084 0.02400057940208419
-0.8342713441741334 0.5507504598811561 0.02579254215037489
-0.8594844064078181 0.5103699815882439 0.02844357634713557
-0.8840737863902498 0.4662782217909681 0.03159367185147786
-0.9074049955005231 0.4187971379343272 0.03500187707410691
-0.9291188966032191 0.3677806584668404 0.03841175903955747
-0.9487876128020681 0.3131605521278805 0.04162372381602968
-0.9658745383496719 0.2551582007896953 0.04450470466785463
-0.9797837092013094 0.1944785979121649 0.04692502677507733
-0.9900865766064354 0.1317410872297374 0.04871197757507879
-0.9964756404777805 0.06756541763070679 0.04971128920863626
-0.9987541379597012 0.002620569814089803 0.04983276554861299
-0.9968455454692015 -0.06238776257055609 0.04905838928918871
-0.9908004715460144 -0.1267467175293004 0.04743095170605895
-0.9807990399537754 -0.189747703106591 0.04504500406842991
-0.9671665906378067 -0.2506385256326775 0.04206085380396218
-0.9504189311126315 -0.3085509460744654 0.03873201594643222
-0.9310771541802118 -0.3631052373030446 0.03535420210918509
-0.9096080680673307 -0.4142209016439454 0.03215909121997361
-0.8864536517278612 -0.4618901076188915 0.02928227829503882
-0.8623351840242582 -0.5056277910792196 0.02680610531570889
-0.8364486077655358 -0.5474921969586103 0.02461749045964303
-0.8053356953847147 -0.5924003955852158 0.02227530133795984
-0.7847401750502578 -0.6194624884334266 0.02119158054409514
0 0 0
0 0 0
0 0 0
0 0 0
0 0 0
0 0 0
0 0 0
0 0 0
0 0 0
0 0 0
0 0 0
0 0 0
0 0 0
-0.705050144363183 0.7088471100793665 0.02097780888425753
-0.7309730193758851 0.6820401767735963 0.02235267794119376
-0.7572398102786823 0.6526871559797578 0.02423522535814767
-0.7862729804357 0.6173083849722397 0.02655481274130169
-0.814463784039651 0.5794511431348636 0.02975091943977998
-0.8419295809541862 0.5385294672099485 0.03377267624687971
-0.8687390111349113 0.4937801545526626 0.0383886637210058
-0.894477896871793 0.4450068889583397 0.04333775245018116
-0.9186530475511634 0.3920966484713355 0.04834042286229296
-0.9406970571136597 0.3350625670423594 0.05312365673298208
-0.9599744317554866 0.2741366325776841 0.05742993169679121
-0.9758313468615718 0.209836210870767 0.06100776253665619
-0.9876998214701398 0.1428362337527176 0.06361503749265951
-0.9951387049579514 0.07393756217055242 0.0650553210343798
-0.9978632068605424 0.004039803511962073 0.06521273174448516
-0.9957671668472653 -0.06590141433903832 0.06406834645192734
-0.9889330440150826 -0.1349243142032532 0.06169978842624906
-0.9776279858686779 -0.2021083908563151 0.05827280319173056
-0.9622880214514172 -0.2666127495378703 0.05403152371508026
-0.9434861065365615 -0.3277274489924098 0.04928169994437079
-0.9218395928976266 -0.3850262009175276 0.04434624644040408
-0.8979547293655804 -0.4383109129876556 0.03950756340138749
-0.8724108635323146 -0.4875201546158811 0.03497690715469279
-0.8457454214795266 -0.5326916806993597 0.03089102394076458
-0.818071125132704 -0.5744686385015676 0.02730233693781956
-0.7894568208320117 -0.6133252466864442 0.02429135275822301
-0.7634618216226694 -0.6454649022703485 0.02238541627319657
-0.7380467000611809 -0.6744008893493295 0.02169121881393658
0 0 0
0 0 0
0 0 0
0 0 0
0 0 0
0 0 0
0 0 0
0 0 0
0 0 0
0 0 0
0 0 0
-0.6499760892342457 0.7596967734981281 0.01979635724797184
-0.6775860704349411 0.7351400697118842 0.0211233296745655
-0.7050118155936722 0.7088092971522066 0.02340342162821703
-0.7331136914640454 0.6795877537987964 0.02654807478267213
-0.7624068265401187 0.6463769712090166 0.03053918688640475
-0.7919529363203742 0.6095506325172947 0.03547637314188997
-0.8214374780421757 0.568800612854121 0.04130777753021894
-0.8505805683788901 0.5236638375936474 0.04784226053331428
-0.8789069669293615 0.4738343174394571 0.05480495506533372
-0.9058118532565917 0.4191392130115475 0.06186442124451276
-0.9305881836758716 0.3595723546316148 0.06865387234175477
-0.9524552361942313 0.2953567439136098 0.07478914941982397
-0.9706143677328952 0.2269927640965303 0.07988763482722615
-0.9843333680185915 0.1552388403639591 0.08359858280873456
-0.9930212833600894 0.08107679371201333 0.08564627438050042
-0.996290262182001 0.005654681601532795 0.08587047255782509
-0.9939974276931104 -0.06979225501197538 0.08425054824642063
-0.9862598560405761 -0.1440321836770051 0.08090875371710275
-0.97344003163138 -0.2159261439510635 0.07609471187882688
-0.9561041354357024 -0.2845048779554362 0.07015594502470932
-0.9349580896226 -0.3490293332005928 0.06349720635435398
-0.9107656258588593 -0.4090357918343099 0.05653048515976903
-0.8842841897868756 -0.4643044414699433 0.0496271833197475
-0.8562237275079735 -0.5148050796629381 0.0430889592075179
-0.8272067799766897 -0.5606687540135653 0.0371415055358815
-0.7976935249088495 -0.60221607531431 0.0319505704412792
-0.7681809295319677 -0.6396340843881646 0.02768208070784269
-0.7397533037281233 -0.67242965237067 0.0245644506550848
-0.712146293067151 -0.7016654209134048 0.02265600064285945
-0.6848140699548836 -0.7283909174641336 0.02182569466442667
0 0 0
0 0 0
0 0 0
0 0 0
0 0 0
0 0 0
0 0 0
0 0 0
0 0 0
-0.5942742476601776 0.8040533509340863 0.01833923170681353
-0.6204710871820077 0.7839787223655373 0.01982404724763734
-0.6474164326425018 0.7618123854887631 0.02222278246252337
-0.6753997527789332 0.7370029599251882 0.02572568770056083
-0.7045218720239266 0.7090317467789252 0.03037949801309502
-0.7347932747553579 0.6773243636282716 0.03620151667890849
-0.7658481049534712 0.6415688924370154 0.0431976434116239
-0.7973618627300022 0.6013187183508937 0.05128214918057927
-0.8289468347822276 0.5560726724900228 0.06025220339813125
-0.8600546780842132 0.5054053650012782 0.06979518417043162
-0.8899738211023873 0.4490278908146657 0.0795018932035432
-0.9178481085907124 0.3868518107015634 0.08888490374283438
-0.9427147608588026 0.3190627916187583 0.09740541393256744
-0.9635723052212803 0.2461816634288594 0.1045131628166848
-0.9794776995517552 0.1690827574946433 0.1097016736372253
-0.9896526785062295 0.08896570563022523 0.112572994750788
-0.9935801005772888 0.007277233166691393 0.1128965261390339
-0.9910705231534933 -0.07440904004071611 0.1106458896501793
-0.9822842044244897 -0.1545344933912523 0.1060039248823151
-0.9677039456573955 -0.2316928030008631 0.09933538441416923
-0.9480660250048177 -0.3047380778938014 0.09113460436713955
-0.9242654449190596 -0.3728484425477354 0.08195990616332062
-0.8972557030818853 -0.4355401147499527 0.07236720065491618
-0.8679664317218984 -0.492629089134665 0.06285581868295527
-0.8372460018643978 -0.5441698306407334 0.05383611968293863
-0.8058231765458925 -0.5903962193769271 0.04562140163254189
-0.774291429771354 -0.6316605495017332 0.0384412797107472
-0.7431866166985388 -0.6682958017723163 0.03247112707737679
-0.7130832478902881 -0.7005260280814628 0.02784897769482104
-0.6842107775209039 -0.7288682313599972 0.02463154965464361
-0.6567309063046439 -0.7537798496092342 0.02281348345519768
-0.6306347081823053 -0.7757566138408745 0.02239510924193962
0 0 0
0 0 0
0 0 0
0 0 0
0 0 0
0 0 0
0 0 0
0 0 0
-0.5669868067461336 0.823511464295679 0.01883690923183222
-0.5876756787425043 0.8088258144573659 0.02093080222817407
-0.6135798160296271 0.7892553352949224 0.02440952825328277
-0.6417502535580341 0.766353172474231 0.02931598705279916
-0.6715745687718109 0.7400757678749144 0.03571353221555786
-0.7028741993581056 0.7099745357762219 0.04363505959706408
-0.735428720377855 0.6755210485517616 0.05306515058792054
-0.768954010933442 0.6361028704369972 0.06389731834110308
-0.8030392300051785 0.5910727181323487 0.07590149505988782
-0.8370852566930371 0.5398325837063971 0.08870769186506422
-0.8702815305958848 0.4819193281456908 0.1018028421179342
-0.9016131612600761 0.4171014310658716 0.1145430209371717
-0.9299018372816167 0.3454843073915457 0.1261870293114812
-0.953889099952001 0.2676030697697104 0.1359565446846479
-0.9723612667099194 0.1844710595601376 0.1431223084883709
-0.9842979898859695 0.09755886278992695 0.1471045050213461
-0.9890141662614338 0.008691509301886733 0.1475650249898513
-0.9862603372260943 -0.08012551409911339 0.144466083234173
-0.9762546977152755 -0.1669171028126818 0.138077680953425
-0.959639053294765 -0.2499390547405115 0.1289315954564527
-0.9373732898523012 -0.3278255502217636 0.117735823321838
-0.9105984360956707 -0.3996600853966194 0.1052725240548793
-0.88050154143771 -0.4649700815419673 0.09230308118731616
-0.8482080691870363 -0.5236633143701342 0.07949719837129596
-0.8147113345673151 -0.5759370904127991 0.06739368823845981
-0.7808369531721628 -0.6221846036168107 0.05639123675718903
-0.747242072991685 -0.6629046776530146 0.04676187225551601
-0.7144591893532206 -0.6986073343654594 0.03867633797976994
-0.6829526767321583 -0.7297513640063531 0.03222713259423341
-0.6531487485882516 -0.7567321978555576 0.02744253899145114
-0.625913391514879 -0.7795130026445132 0.02432909843122554
-0.6044502259802736 -0.7963127831246649 0.02293198082691336
0 0 0
0 0 0
0 0 0
0 0 0
0 0 0
0 0 0
0 0 0
-0.4886665453640529 0.8722521064154483 0.01952614390438406
-0.5217581275401647 0.8528534859751064 0.02023333402802313
-0.5481154256077162 0.8360871899283807 0.02297152690909237
-0.5750662584306235 0.8176409342570747 0.02760617760250086
-0.6036144029031552 0.7965470116929504 0.03409561219420882
-0.6339459618353082 0.7722092547123763 0.04248981535923012
-0.6660917164033383 0.7439959229628001 0.05283835684032295
-0.6999681276212525 0.7111974377051962 0.06513697042357067
-0.7353647176677955 0.6730182588178056 0.07927897140611816
-0.7718947290038379 0.6286107457866584 0.09501082894929447
-0.8089374967813887 0.5771475777916034 0.1118963795229533
-0.8455983082791135 0.5179250053309862 0.1292949724018624
-0.8806992166938512 0.4504961571431069 0.1463629123587298
-0.912816171308836 0.3748244680045196 0.1620902698566626
-0.9403775177027313 0.2914288754127389 0.1753833936691693
-0.9618268552674253 0.2014761541371089 0.1851930338876023
-0.9758299794245857 0.1067737986152278 0.1906704150766101
-0.9814814058935385 0.009635743009961681 0.1913149297412211
-0.9784537516577909 -0.08736758986437247 0.1870699337362475
-0.9670443560719325 -0.1817196110908005 0.1783345068527931
-0.9481063801110637 -0.2712485057724717 0.1658871306307263
-0.9228903997150796 -0.3543285098480636 0.1507468647189397
-0.8928470980195987 -0.4299583638427024 0.1340144205661718
-0.8594426383146425 -0.4977266582861773 0.1167327078330685
-0.8240206879594376 -0.5577021172715837 0.09979105273343555
-0.787721609409239 -0.6102942290725344 0.08387860293590212
-0.7514528331755671 -0.6561183353390294 0.06947927420715817
-0.715899384811661 -0.695881556577259 0.05689402465896797
-0.6815625402012796 -0.7302951948108369 0.04627561161756894
-0.6488015695221341 -0.7600250455275994 0.03766236259696149
-0.6178490526512423 -0.785685324922392 0.03100190864377452
-0.5887789993668338 -0.8078707548646524 0.02615594270917676
-0.5608744560063769 -0.8275858878592703 0.02283512241555046
-0.5272659044380329 -0.8494536842453461 0.02047203798234519
0 0 0
0 0 0
0 0 0
0 0 0
0 0 0
-0.4235086411575147 0.9057081939719738 0.01825097906798736
-0.4520987911367737 0.8917576031680141 0.01936647218017891
-0.4795199900130411 0.8772672775902455 0.02151052875434206
-0.5056288582588125 0.8623740613727826 0.02550364615698945
-0.5324338789655937 0.8458818180778973 0.03159294818281255
-0.5608477597370377 0.8269565173029282 0.03990875703598076
-0.5912627271161964 0.8048913346861413 0.05057990579548089
-0.6238628514973793 0.7789322677276923 0.06371549901046802
-0.6586913993800572 0.7482164176878769 0.07935888535672456
-0.6956357065688237 0.7117569077961098 0.09743237629768144
-0.7343723016528285 0.6684679316752052 0.117677299794819
-0.7742959716411146 0.617234930641859 0.139595088365892
-0.8144551252524924 0.5570359674960487 0.1624000611628188
-0.8535168202880563 0.487117692388666 0.1850010574221296
-0.8897897829364739 0.4072146337284393 0.2060349102925889
-0.9213336795983426 0.3177740588847822 0.2239729857319154
-0.9461673462249542 0.2201196002619566 0.2373072154784665
-0.9625542912131516 0.1164743287400605 0.2447916812551009
-0.9693012839309932 0.00978779147324514 0.2456811350262852
-0.9659797657902905 -0.09662367019809784 0.2398894713012305
-0.9529939334882963 -0.1995352122294525 0.2280093458940916
-0.9314744142524819 -0.2962369047144131 0.2111850181197015
-0.9030422988402929 -0.3848076518051245 0.1908865569322898
-0.8695270273090074 -0.4641940248314847 0.1686613651370903
-0.8327171574956845 -0.534122400952158 0.1459294227132034
-0.7941893604365668 -0.594914295200731 0.1238557270988046
-0.7552232293105802 -0.6472764673517629 0.1033007682561948
-0.7167854802158395 -0.6921145107183194 0.08482970826832303
-0.679559266046626 -0.7303915905080325 0.06875557028573544
-0.6439947808680325 -0.7630362271097675 0.05519454984711335
-0.6103565769785609 -0.7908972355726566 0.04411815615529536
-0.578741090319734 -0.8147429583697302 0.03539296769790613
-0.5490192850000829 -0.8353131983029487 0.02880426077676205
-0.5205413119944208 -0.8534971404454683 0.02407018401539562
-0.4915605979350446 -0.870592081178266 0.02091905225951461
-0.4623450263986384 -0.8864867970955501 0.01944826829603585
0 0 0
0 0 0
0 0 0
0 0 0
-0.3934316773709777 0.9191818525118547 0.01778306087076979
-0.4123977519215014 0.9107927380921099 0.01961332324641419
-0.4354866397874728 0.8999005942728875 0.02302839538306834
-0.4598401939858575 0.8875459761339963 0.02844532023725607
-0.4855889976538694 0.873437383779361 0.03620030350943176
-0.5132191919854165 0.8569935002878446 0.04656395002814546
-0.5431266839562652 0.8375199461753168 0.05978080739806777
-0.5755947660767166 0.8141901345113475 0.07605977997261747
-0.6107889467363654 0.786009221502967 0.09553201692092675
-0.6487181483848526 0.7517955012869584 0.1181875128802463
-0.6891629436575444 0.7101952852944025 0.1437953192383881
-0.7315812285733239 0.6597490387438409 0.1718141783314843
-0.7750095485825856 0.5990286932696184 0.2013077848606702
-0.8179892379466407 0.5268613019762491 0.2308912624664796
-0.8585597693571365 0.4426339408278168 0.2587475929717151
-0.8943677563672204 0.3466341283186334 0.2827562509573302
-0.9229235550777035 0.2403279434894613 0.3007566974497135
-0.9419876990811813 0.1264438165169899 0.3109198225336541
-0.9499978867316601 0.008755873627143664 0.3121335449489608
-0.9463950877030033 -0.1084342493194088 0.3042669083981367
-0.9317231461205662 -0.2209772098539627 0.2882031431271198
-0.9074668469491211 -0.3254937211692076 0.2656271054836874
-0.8757044633956518 -0.4197434739742729 0.2386568851823503
-0.8387104084377769 -0.5026856019074187 0.2094565263082362
-0.7986268793339479 -0.5742970105440328 0.1799390210196394
-0.7572615837541905 -0.6352725212504688 0.1516038176107954
-0.7160090711612714 -0.6867181329889132 0.1254958797689936
-0.6758609865162624 -0.7299024878753334 0.1022461984557983
-0.6374648169450414 -0.7660872813025562 0.08215159513778332
-0.6011981201487112 -0.7964305206984611 0.06526289933517523
-0.5672347542915067 -0.8219466197275813 0.05146346123470513
-0.5355879834520754 -0.8435062094533823 0.04053130389372221
-0.5061259713325031 -0.8618587441955209 0.03218705013587427
-0.4786060947936645 -0.8776404833236705 0.0261416919450746
-0.4531248161164316 -0.8911712050975045 0.02217620852424421
-0.4327494788839133 -0.9012865127355825 0.0202610583789123
0 0 0
0 0 0
0 0 0
-0.3159246040873581 0.9486451265757323 0.01625018019464382
-0.3449900853958972 0.9384418664068631 0.01756998444319007
-0.3662952390431274 0.9302777028324 0.02027790588818812
-0.3876936750585138 0.9214525537874214 0.02487580025369922
-0.4102085264110851 0.9114392753959456 0.03173975622715134
-0.4343212391916361 0.8998125183986488 0.04126127627839661
-0.460500494949848 0.8860260938940909 0.05382429832077389
-0.4891812121993736 0.8693846025278266 0.06980082032959112
-0.5207413706670482 0.8490069037278789 0.08953045458503893
-0.5554740114098414 0.8237825929685149 0.1132733956864048
-0.5935330032374383 0.792338034349094 0.1411347348874834
-0.634844718773018 0.7530319259681513 0.1729598263143893
-0.6789872247638465 0.7040079536257134 0.2082045864990119
-0.7250504121831454 0.6433397230758777 0.2457964615402412
-0.7715091655781507 0.5693024313987403 0.2840217404220808
-0.8161664075138515 0.4807826063182816 0.3205003599182586
-0.856241864221042 0.3777788600481264 0.3523251379848055
-0.8886711121946143 0.2618569963431225 0.3764233890407777
-0.9106129278053364 0.1363461054009681 0.390120283061238
-0.9200476046754822 0.006079442678614996 0.3917594229978703
-0.9162506083500952 -0.1233497979170967 0.3811425586993547
-0.8999376674518952 -0.2465975862084286 0.3595856298260796
-0.8730236810285049 -0.3594686954158574 0.3295632099908307
-0.8381214370722073 -0.4594039768745486 0.2941095760968464
-0.7979957317182105 -0.5454848779216391 0.256220725387958
-0.7551456743673722 -0.618095170555425 0.2184339044661019
-0.7115803607989049 -0.6784525975086882 0.1826347805293763
-0.6687634501975511 -0.7281764356358332 0.150048413069117
-0.6276643592821496 -0.7689699945125871 0.1213367200242357
-0.5888562114451404 -0.8024279774198787 0.09673522262504891
-0.5526194931759713 -0.8299441630347251 0.07618649490901534
-0.5190291450876969 -0.8526865337608485 0.05945100245112162
-0.488016838486206 -0.871611120246128 0.04619112920483296
-0.4594117488951793 -0.8874922278947812 0.03603318475280302
-0.4329777719100676 -0.9009503065242438 0.02861458029858181
-0.4084474279803881 -0.9124763595556235 0.02361338239899863
-0.3850098950245959 -0.9226800253930471 0.02071114371142225
-0.355040860240207 -0.9346478870799977 0.01947600412787438
0 0 0
0 0 0
-0.2856570138558406 0.9582042232796707 0.01564406992973423
-0.3006522871113412 0.9535708451147751 0.01763081398610318
-0.3180189126874479 0.9478457986703062 0.02126765422282874
-0.3366992671765054 0.9412253485933978 0.02698975079618993
-0.3567902799005002 0.9335187618650611 0.03526212436092254
-0.3786139801223481 0.9243827141932331 0.04656234268875307
-0.4025966363559292 0.9133168183123889 0.06138678833939527
-0.4292022375026195 0.8996367314137277 0.08024456875059278
-0.458891569031708 0.8824278579087932 0.103632058061757
-0.4920819848030172 0.8604863533783581 0.1319793767296163
-0.5290850009942784 0.8322611961294183 0.1655607536226918
-0.5700066197328834 0.7958196925301956 0.2043611275214454
-0.6146033330107254 0.7488725016512253 0.2478965899780442
-0.662099755553525 0.6889109647859165 0.2950010106655565
-0.7109983931139349 0.6135187292656018 0.3436219635438384
-0.7589501259591618 0.5209002202431547 0.3907143033691045
-0.8027934496322737 0.4105916674129976 0.4323623016389471
-0.8388754031130536 0.2841765695669641 0.4642539556762693
-0.8636876818243712 0.1456738671963117 0.4825170594713875
-0.8746771391684665 0.001250378153816785 0.4847043828670614
-0.8709155417020611 -0.1418378658519322 0.4705190102773467
-0.8533083199592864 -0.2767345201493863 0.4419082670034
-0.8242489324258345 -0.3982815225595548 0.402474255304006
-0.7869200830484396 -0.5036430861566576 0.3565114649792253
-0.7445715195184986 -0.5921884193485648 0.3081008411403023
-0.7000137381997543 -0.6649076590257815 0.2605351632706424
-0.6553903167920883 -0.7237108289209672 0.2161161001815735
-0.6121665325880257 -0.7708437241738957 0.1762160301472945
-0.5712350879923707 -0.8085030892481744 0.1414681198097521
-0.5330587023923904 -0.8386347069968143 0.1119832488549405
-0.4978032046544692 -0.8628607173976778 0.0875405723519373
-0.4654424876656468 -0.8824825403152824 0.06773371918254326
-0.435834234014525 -0.8985192042705209 0.05207456210129272
-0.4087770318358304 -0.9117544605518811 0.04006422228417741
-0.3840699588551543 -0.9227752623650449 0.03124230900753068
-0.3616000280687157 -0.9319921310155865 0.02522077369409679
-0.3414863862069993 -0.9396361850321433 0.02169994962028502
-0.3250116892169926 -0.9454895738460403 0.02041733627948232
0 0 0
0 0 0
-0.2432064325963662 0.9698418192272371 0.01604608431211231
-0.2532205431379387 0.9672356355510485 0.01829157874776771
-0.2669676829666344 0.9634411733575056 0.0225690436425428
-0.282579803244377 0.958797682603338 0.02925164325020048
-0.2997302380775125 0.9532336909214494 0.0388241532331051
-0.3186060576808868 0.9464690763782746 0.05183114381043922
-0.3395951630344162 0.9380465204328904 0.06887561794550084
-0.3631772251379729 0.9273036840190118 0.09061004770912738
-0.389873800458076 0.9133144101016395 0.1177081476239861
-0.4202067272279867 0.8948092698424681 0.1508067538153809
-0.4546368028490109 0.8700872494764732 0.1904036653893365
-0.4934623298555126 0.8369410080561571 0.236695327472919
-0.5366622326703525 0.7926383120831472 0.2893408962508604
-0.58367959690291 0.7340306353009043 0.3471558073819396
-0.6331682609475996 0.6578862724829631 0.4077788687598515
-0.6827752601875531 0.5615395299149413 0.4674305300456158
-0.7290972764835978 0.443858275353648 0.5209673625327069
-0.7679843683259792 0.3063179886805509 0.5624671544345035
-0.7952855712554341 0.1536923976552597 0.5864294561632243
-0.807889706703807 -0.00622834324017347 0.5893007971677274
-0.8046305634925951 -0.1641161400469365 0.570644853538243
-0.7865796103318882 -0.3112672845062179 0.5332965349655474
-0.7565803067777509 -0.4414424830488144 0.4824051964435924
-0.7183253918500941 -0.5516304781024601 0.4239250488610687
-0.6754527282915325 -0.6417078620883749 0.3632831286716906
-0.6309693284365027 -0.7134964610962363 0.3046317556912528
-0.5870466913855813 -0.7697639231885615 0.2506784487956552
-0.5450713766657389 -0.8134733578208387 0.2028750611963066
-0.5058106559422679 -0.8473457797041929 0.1617427276657133
-0.4695962083377372 -0.8736713106672932 0.1271921461086089
-0.4364794126475379 -0.8942753310799747 0.09877932251570196
-0.4063461459988131 -0.9105624525200319 0.07588695337549869
-0.378997374690705 -0.9235881895776848 0.05784328872191935
-0.3542119514307618 -0.9341296463548644 0.04399655968989732
-0.3318189211148612 -0.9427387536209435 0.03376160558088227
-0.3118323981550588 -0.9497632230804365 0.02665287122854067
-0.2947993831849771 -0.9552986356744001 0.02231233632738123
-0.2828860228022011 -0.9589346835227047 0.02048830984639766
0 0 0
0 0 0
-0.1931460886655154 0.9810217224756996 0.01705779774835514
-0.201680050007682 0.9792616254406454 0.01928279980302462
-0.2128756733780169 0.9767850274286713 0.02397827923402539
-0.225457023709429 0.9737451896091762 0.03145530437104024
-0.2392894947663262 0.9700316484348032 0.04217983794817247
-0.254608928668922 0.9653777826045609 0.05674531078040296
-0.2718098177763472 0.9593567889574137 0.07585495660607031
-0.2913791522005708 0.9513342550137257 0.1003061558447718
-0.3138677865468055 0.9403914725566814 0.1309614100064758
-0.3398623963631098 0.9252229333938486 0.1686892855530712
-0.369936233363512 0.9040144595597585 0.2142546152401254
-0.4045582877748924 0.8743215391111034 0.2681313820481255
-0.4439401862367726 0.8329934841301898 0.3302104880840491
-0.4878059555183367 0.776230840710854 0.3993883219251194
-0.5350936705510475 0.6999128662797559 0.4730716048890091
-0.5836541079405607 0.6003528676696784 0.5467397155547612
-0.6301011393827135 0.4755506295461878 0.613860043403079
-0.670044992289976 0.3267192200386044 0.6665540184894928
-0.6988844423061742 0.1594063458371629 0.6972446867558262
-0.713038975205852 -0.0167246226694958 0.7009248938609264
-0.7110874731914748 -0.1898995563405435 0.6769732372640942
-0.6941614870324326 -0.349284007736075 0.6293969430023842
-0.6653773679743402 -0.4875103775780892 0.5653375893580823
-0.6287154044306376 -0.6015563251593827 0.4927950160993497
-0.5879733170418885 -0.6920508048137851 0.4187517904479345
-0.5461611271597647 -0.7618551170636474 0.348259678664514
-0.5053433294724428 -0.8147157863773508 0.2843700173809479
-0.466754016600808 -0.8543541508278096 0.2285162422023967
-0.4310107698769169 -0.8840042752921754 0.1810142467190423
-0.3983231186994008 -0.9062647844695325 0.1415020619636832
-0.3686549864611167 -0.9231225127346475 0.109262653454067
-0.3418371865566383 -0.9360479852417857 0.08343564712900066
-0.3176415338401424 -0.946106001843129 0.06314498599327141
-0.295833620871645 -0.9540542834998289 0.04756987384468297
-0.2762261209937902 -0.9604189317436935 0.03598062852461104
-0.2587726096743777 -0.9655394484807267 0.02775445747705441
-0.2438201413185502 -0.9695620561287341 0.02238655853012736
-0.2329750023383322 -0.9722861839451979 0.01955057018959491
0 0 0
-0.1029112957809352 0.9945470913852437 0.01689225319014623
-0.1324481602149362 0.9910360605474303 0.0174645798777965
-0.1459276646768812 0.9890931394931504 0.01999695200609959
-0.1560364349312071 0.9874307951621476 0.02516059894770591
-0.1657284035857326 0.9856075888466166 0.0333433209636147
-0.1759324082707362 0.9833705708867529 0.04505672018600426
-0.1871498114234493 0.9804379828466976 0.06096154423622589
-0.1998231408519561 0.9764063497207116 0.08186178965264464