# OOMMF: rectangular mesh v1.0
# Segment count: 1
# Begin: Segment
# Begin: Header
# Title: 
# Desc: time = 3.0799999999999997e-09
# Desc: stepsize = 2.9542226174294724e-14
# Desc: step = 19710
# meshunit: m
# valueunit: (none)
# valuemultiplier: 384000.0000000001
# xmin: 0
# ymin: 0
# zmin: 0
# xmax: 9.357999999999999e-08
# ymax: 9.357999999999999e-08
# zmax: 2.3395e-08
# ValueRangeMaxMag: 1
# ValueRangeMinMag: 0
# meshtype: rectangular
# xbase: 1.16975e-09
# ybase: 1.16975e-09
# zbase: 1.16975e-09
# xstepsize: 2.3395e-09
# ystepsize: 2.3395e-09
# zstepsize: 2.3395e-09
# xnodes: 40
# ynodes: 40
# znodes: 10
# End: Header
# Begin: Data Text
0 0 0
0 0 0
0 0 0
0 0 0
0 0 0
0 0 0
0 0 0
0 0 0
0 0 0
0 0 0
0 0 0
0 0 0
0 0 0
0 0 0
0 0 0
0 0 0
-0.9867537450478129 0.1615526190070091 0.01475797838770151
-0.9913696275834589 0.1301503237041856 0.01572115596033923
-0.996012801457052 0.08770756392272722 0.01630590581401077
-0.9990233357504553 0.04098689457946152 0.01650603219326401
-0.9998398649559986 -0.00693378188120928 0.01649748809952313
-0.9984165992403162 -0.05377205744727721 0.01651848053811703
-0.9952013865326725 -0.09638696339979223 0.01684498530758131
-0.991632312526726 -0.1278809538378807 0.01765838040170528
0 0 0
0 0 0
0 0 0
0 0 0
0 0 0
0 0 0
0 0 0
0 0 0
0 0 0
0 0 0
0 0 0
0 0 0
0 0 0
0 0 0
0 0 0
0 0 0
0 0 0
0 0 0
0 0 0
0 0 0
0 0 0
0 0 0
0 0 0
0 0 0
0 0 0
0 0 0
0 0 0
0 0 0
-0.9276895149273744 0.3729654121327878 0.01699897780550627
-0.93902016831192 0.3433817440756282 0.01816869117555965
-0.9531552818482564 0.301909780311194 0.0185874483783311
-0.9673596873539989 0.2527603227461265 0.01809570467395851
-0.9811246666954346 0.1926106812969916 0.01719051634130329
-0.9895496705356726 0.1431126131364182 0.01761333313167998
-0.9954253601088906 0.09381183871783981 0.01810224760805205
-0.9988889588761638 0.04340754528781073 0.01834755698669312
-0.9998028871317081 -0.007530887742022032 0.01837042767377457
-0.998141230313487 -0.05813201909890731 0.01829624835211554
-0.9940054326397021 -0.1077980688538394 0.01824215541380186
-0.9873060711553189 -0.1577944322232538 0.01810080161730328
-0.975679519389187 -0.2185417745582337 0.01699906519262348
-0.9631362660340207 -0.2685755039483959 0.01535355753267518
-0.9503143102163071 -0.3109581477580171 0.01441326267738146
-0.9398851651114468 -0.3411765700727966 0.01464323860319201
0 0 0
0 0 0
0 0 0
0 0 0
0 0 0
0 0 0
0 0 0
0 0 0
0 0 0
0 0 0
0 0 0
0 0 0
0 0 0
0 0 0
0 0 0
0 0 0
0 0 0
0 0 0
0 0 0
0 0 0
0 0 0
0 0 0
-0.8781160140008123 0.4781818349772023 0.01594987940896425
-0.8932742191495328 0.4491912488038122 0.01698209059166741
-0.9152430937358259 0.4025075453754389 0.01782569170362554
-0.9327992719517411 0.3598880513348223 0.01913396855662208
-0.9491788661451591 0.3140940738983488 0.02010952026598552
-0.9642954825335823 0.2640253517141289 0.02061155058591222
-0.9775955083775347 0.2094466533741598 0.02095522346417671
-0.9875814560827213 0.1556180389219516 0.0215845677190422
-0.9945788017961539 0.1015962589172657 0.02216319452927502
-0.9986410810524119 0.04702088406380601 0.02247282128100032
-0.9997163990532559 -0.007901916876142454 0.02246511014158096
-0.9977805824167448 -0.06278668634305737 0.02217524227961118
-0.9928476414261312 -0.1174120968982269 0.02163239276014663
-0.9848584849462211 -0.172113207608033 0.02075592436649241
-0.9735182982230377 -0.227789000511963 0.01934668629716722
-0.9600901489132289 -0.2791306934055859 0.01769073086931211
-0.9451365776355375 -0.3262625511810701 0.01641941875349663
-0.928825341589843 -0.3701809712621849 0.01579662419305538
-0.9082905448956818 -0.4180559385529443 0.01541162852270024
-0.8939827730918334 -0.4478338403302386 0.01548072576159385
0 0 0
0 0 0
0 0 0
0 0 0
0 0 0
0 0 0
0 0 0
0 0 0
0 0 0
0 0 0
0 0 0
0 0 0
0 0 0
0 0 0
0 0 0
0 0 0
0 0 0
0 0 0
0 0 0
-0.8404730303007768 0.5416082194622349 0.01629791238094214
-0.8618689703405755 0.5068453399858592 0.01701996764669059
-0.8827731802584441 0.4694343012907868 0.01851888193230953
-0.904532399329756 0.4259238233461083 0.02024932761815474
-0.9246209755018782 0.380242647220269 0.02217162368607002
-0.9431079283104014 0.3316216137210505 0.023969582205556
-0.9597555415495279 0.2796765792857792 0.02550120514754753
-0.9740886254146338 0.2245708146457817 0.02681975106444925
-0.9854114296144394 0.1678716292010904 0.02798982841315678
-0.993509753244826 0.1100231021754233 0.02886671431079194
-0.9982512475969595 0.05133705937353923 0.02930790006109359
-0.9995418144113222 -0.007788532090783005 0.02924893179575135
-0.9973468128377777 -0.06690530937555209 0.02868822928812461
-0.9916961568875398 -0.1255962182248294 0.02764638099471286
-0.9826704210752137 -0.1835096938707826 0.02613495359309663
-0.9704375681381165 -0.2401364042539858 0.02419573718951606
-0.955605233597474 -0.2938230429266669 0.02206030295419424
-0.9386412107499442 -0.3443102359515028 0.02007831917514086
-0.919829259470858 -0.3918847780040799 0.01845140075944496
-0.8992008721937709 -0.4371986203977122 0.01718015623615009
-0.8792102520986687 -0.4761515281922348 0.01640289013541811
-0.8588247330695835 -0.512016833086385 0.01608852088126335
0 0 0
0 0 0
0 0 0
0 0 0
0 0 0
0 0 0
0 0 0
0 0 0
0 0 0
0 0 0
0 0 0
0 0 0
0 0 0
0 0 0
0 0 0
0 0 0
-0.7662953780400673 0.6422569737266058 0.01724451489522916
-0.7869171893285314 0.6167975517308051 0.01794762709019691
-0.8182873162890149 0.5745219395036513 0.0181771568041892
-0.8443304770561741 0.5354628048787188 0.01963746688115248
-0.868701170669853 0.4948513885565964 0.02191755735557922
-0.892374757741683 0.4506222807083763 0.02463436369491718
-0.9147228120467907 0.4031411005527678 0.02755776054607038
-0.9353902251200583 0.3523042765977008 0.03044377507499361
-0.9539688321401569 0.2980722505097378 0.03311194318074446
-0.969956232708663 0.2406818661537365 0.03545625381187832
-0.9828014852112912 0.1808425512799933 0.03737930327096357
-0.9921181036355371 0.1191682073844906 0.03873766626156226
-0.9976385725066134 0.05625645849525398 0.03940164367812837
-0.999201088923122 -0.007262444390576325 0.03929937399400427
-0.9967549863063139 -0.07073298019893309 0.03842320634300218
-0.9903650517786081 -0.1334974518613819 0.03681704173439901
-0.9802132310358219 -0.1949028974317066 0.03456706922838281
-0.9666142033831495 -0.2542531818904361 0.03181668299096406
-0.950059568354111 -0.3107371751791345 0.02879625914058936
-0.9310383119023954 -0.3640099607411845 0.02577615664017458
-0.9099869094816198 -0.4140006207209226 0.02296324486610771
-0.8873224313649701 -0.46069503362554 0.02046921564985009
-0.8637385148263533 -0.5036059347520673 0.01835321465197638
-0.8384559083989453 -0.5447198010902149 0.01649327048027822
-0.8081337804800168 -0.5888214805926059 0.01445879800699184
-0.7880422709803473 -0.6154718317660929 0.01355741312444169
0 0 0
0 0 0
0 0 0
0 0 0
0 0 0
0 0 0
0 0 0
0 0 0
0 0 0
0 0 0
0 0 0
0 0 0
0 0 0
-0.7189527806710565 0.694870976927749 0.01616244377657556
-0.7442467504840063 0.6676800314814513 0.01732483636069683
-0.7698853938214397 0.6379003759461175 0.01896287816257262
-0.798174166370194 0.6020629429209137 0.02093353531189513
-0.8256090966971762 0.5637441375118037 0.02371005845511304
-0.852260279459913 0.5224085369501138 0.02723484122502484
-0.8781574089221182 0.4773484958635272 0.03127265022378916
-0.9028779998440432 0.4284226184904521 0.03557214308140534
-0.9259362725076611 0.3755692089585584 0.03987215239814136
-0.9467889975503252 0.3188432662679902 0.0439268217972745
-0.9648405144531812 0.2585056547810963 0.04751429380635958
-0.9794889154516649 0.195086770721419 0.05042436312745532
-0.9902229131406811 0.1292552513105626 0.05245628942106187
-0.9966573934221643 0.06178271303296506 0.05345031812087977
-0.9985565233900803 -0.006482656838407565 0.0533183341396834
-0.995849873607576 -0.0746533272167309 0.05205679562983439
-0.9886383064255457 -0.1418442434298003 0.04974444364807145
-0.9771886849842011 -0.2072121207367021 0.04653397638979303
-0.9619191053583047 -0.2699871717362564 0.0426445992422916
-0.943370100850027 -0.3295181200177345 0.03834920341007762
-0.9221188983862101 -0.3854155752957408 0.03393481336997448
-0.8987318776384063 -0.4374951001048067 0.0296487689597638
-0.8737538430306337 -0.485690488042242 0.02567044242873924
-0.847695825822519 -0.5300216547670618 0.02210955361517901
-0.8206653428210058 -0.5710931730355816 0.01899954748492952
-0.7927320686707139 -0.6093494026114487 0.01640648768386107
-0.7673426638727748 -0.6410657846246512 0.01482889018819261
-0.7425422592117997 -0.6696447864490885 0.01438239431355307
0 0 0
0 0 0
0 0 0
0 0 0
0 0 0
0 0 0
0 0 0
0 0 0
0 0 0
0 0 0
0 0 0
-0.6652128605210721 0.7464927130085183 0.01550740541013996
-0.6922568418460187 0.7214596586445385 0.0166260598423516
-0.7191974470633006 0.6945549052693062 0.01866857530654021
-0.7467999360292086 0.6647011210412462 0.02150058681246507
-0.7755211952618298 0.6308235019035408 0.02507160038402403
-0.8044189473690041 0.5933305363319396 0.02947934479930025
-0.8331473038129742 0.5519634236918514 0.03466913693101058
-0.8613965931147948 0.5063196296745854 0.04045172402277795
-0.8886791699765811 0.4561590640078267 0.04656437665466857
-0.9143966747036338 0.4013745366662091 0.05269917083714518
-0.9378688605885122 0.3420187374703968 0.05852506777066848
-0.9583618662010673 0.2783597939563112 0.06370524719524372
-0.9751408625689928 0.2109221308871168 0.0679128327360761
-0.9875477097091917 0.1404601775455633 0.07085520144631999
-0.9950669549130783 0.06791935298069321 0.0723098660674832
-0.9973774172852231 -0.005619945044115795 0.07215749238408153
-0.9943845365333581 -0.07901407154665456 0.07040007102949856
-0.9862289943070779 -0.1511349311144483 0.06716102578936822
-0.9732703650983091 -0.2209462243215538 0.06267026710852003
-0.9560481862645164 -0.2875684260543184 0.05723867466119834
-0.9352244626047179 -0.3503303134213359 0.05122378396628646
-0.9115106882916972 -0.4088085871232673 0.04498671164104033
-0.8856126091626949 -0.4627969006165033 0.03885016437290388
-0.8581954394861703 -0.51225653494803 0.03307310158083502
-0.8298478883499827 -0.5572943943695802 0.02784672701265442
-0.8010098181836558 -0.5981971624599525 0.02331149927069206
-0.7721624013390044 -0.6351223920850052 0.01961563230188419
-0.7443601283920356 -0.6675626493510869 0.01697375773214921
-0.7173659017607065 -0.696525425817956 0.01544325678615413
-0.690688102109131 -0.7229995226750491 0.01488743821271815
0 0 0
0 0 0
0 0 0
0 0 0
0 0 0
0 0 0
0 0 0
0 0 0
0 0 0
-0.610697437929659 0.7917304985014382 0.0145415628050903
-0.6364264266793059 0.7711743489194991 0.01585960254218493
-0.6630239382341908 0.748380351117525 0.01805844372124842
-0.6907016885854763 0.7228265205629496 0.02128376273197764
-0.719495263883997 0.694027123441411 0.02555224405288007
-0.749362394734284 0.6614406698902862 0.03085841170877377
-0.7799014412931192 0.6247961049313313 0.03719635911688032
-0.8107501425407752 0.5837005080841973 0.04447384885933129
-0.8414877592049698 0.5377204180433248 0.05248907626840588
-0.8715473974254911 0.486509185001097 0.06094216069701811
-0.9002195437842822 0.4298618712952921 0.06945174292505751
-0.926675042008597 0.3677708551052047 0.07757554159367022
-0.9500048678508922 0.3004886031493408 0.0848371996058702
-0.9692858499147756 0.2285762534176863 0.09076253372688559
-0.9836703389560059 0.1529101564679131 0.09492706835847425
-0.9924802318793707 0.07464638523420423 0.09700982682252933
-0.9952880868217575 -0.004856601784843025 0.09684026874079237
-0.9919692715214257 -0.08414778406273767 0.09442518093486803
-0.982714354848283 -0.1618077615697052 0.08994856903210934
-0.9679996844529342 -0.2365656779182173 0.08374539348593205
-0.9485234218877955 -0.3073895597594541 0.0762559943949061
-0.9251211581499946 -0.3735382832136058 0.0679705356536501
-0.8986781156947049 -0.4345715929723596 0.05937318378594655
-0.8700579854932541 -0.4903148502746352 0.0508964584188544
-0.8400533175046685 -0.5408054159627779 0.04289435644379413
-0.8093511800548737 -0.5862428581924843 0.03563675858000712
-0.778517967721512 -0.6269369438006235 0.02932306997400173
-0.7480729875614549 -0.6631783477213919 0.02410984019863228
-0.7185816213959552 -0.6951513828212299 0.02012481934556961
-0.6902873488232416 -0.7233255618172211 0.01742147170537466
-0.6633801612848523 -0.7481116518667327 0.01599118366199029
-0.6378950283107266 -0.7699606321095849 0.01582901948528249
0 0 0
0 0 0
0 0 0
0 0 0
0 0 0
0 0 0
0 0 0
0 0 0
-0.5839043943091126 0.811677261015981 0.01535194632947124
-0.6044686638408364 0.7964403916376364 0.01733023377112401
-0.630271507666239 0.7761015665443942 0.0205957527530065
-0.6583541242991585 0.752287174754447 0.02517645166141792
-0.6880567448087305 0.7249896105200874 0.03111238597641628
-0.7191484574268521 0.6937938589105516 0.0384132466550816
-0.7513592398018635 0.658214322282617 0.04704464588452937
-0.7843563070253999 0.6176965985501746 0.05688669237194551
-0.8176855905474927 0.5716697513159286 0.06770502522990571
-0.8507183925734777 0.5196297766430158 0.07913982412873705
-0.8826369324928717 0.4612201830249533 0.09070825855456596
-0.9124494005967959 0.396318694738091 0.1018213315157632
-0.9390360750538315 0.325127307045409 0.111818978536271
-0.9612323421157333 0.2482458700601672 0.120026549016341
-0.9779454331594147 0.1667015028681007 0.1258305952626823
-0.9882864375323658 0.08191472326832193 0.1287629430444146
-0.9916901525406582 -0.004403783400465273 0.1285739011061254
-0.9879938590349991 -0.09041249452175243 0.1252745598415098
-0.9774549159868083 -0.1743231536816183 0.1191357431827916
-0.960703801399304 -0.2545704145219044 0.1106440691003002
-0.9386470597190864 -0.329933309240455 0.1004276293375268
-0.9123461693301795 -0.3995912133467214 0.08917022779292516
-0.8828999875023372 -0.4631158703756558 0.07753259104770832
-0.8513517292435352 -0.5204150514792858 0.06609392791970055
-0.8186276550155415 -0.5716541536624423 0.05531989736281008
-0.7855053211718155 -0.6171758679778315 0.04555588212923764
-0.7526123294278309 -0.6574212971631214 0.0370394334402241
-0.7204668432170405 -0.692843540908482 0.02992249398477385
-0.689531146849552 -0.7238485953465715 0.024290091377688
-0.660240959326195 -0.7507829720713107 0.02016939453217903
-0.6334693971573647 -0.773568395965839 0.0175630187588461
-0.6123776950997198 -0.7903933880605118 0.0164878941826883
0 0 0
0 0 0
0 0 0
0 0 0
0 0 0
0 0 0
0 0 0
-0.5067635572040792 0.8619219415191566 0.01677092179085672
-0.5395521365774271 0.8417756232566248 0.01724215780156113
-0.5659214848522521 0.8242214177216589 0.0197971601882868
-0.5929915977868502 0.8048456223735845 0.02417620938599885
-0.6216897895384235 0.7826777532072293 0.03028762483512845
-0.6521423662607582 0.7571361669965433 0.03814654314091175
-0.6843207054396976 0.7276146614348862 0.04777108509873031
-0.7180805110403058 0.693443760153473 0.05912809119450498
-0.75314948818216 0.6538878738108819 0.07208673202493109
-0.7890824311157696 0.6081838263488766 0.08637910784481265
-0.8252121054557442 0.5556150924141522 0.1015718961667568
-0.8606204874370231 0.4956116051325223 0.1170534641162972
-0.8941420177482021 0.4278720597609811 0.132043752495409
-0.9244110853095012 0.3524972366906234 0.1456359965200369
-0.949964134681029 0.2701072144615486 0.1568764976519633
-0.9693946380492124 0.1819034299779462 0.1648792827607352
-0.9815386424736023 0.08963909380968911 0.1689577645213591
-0.9856498700935793 -0.004518901313641964 0.1687421497890424
-0.9815169256357109 -0.0982194374794844 0.1642481865709197
-0.9694882384933319 -0.1891971633442397 0.1558749139713921
-0.9503993101376034 -0.2755166174016489 0.1443320644400283
-0.9254277747025746 -0.3557356857915951 0.1305203266293178
-0.8959197576778206 -0.4289649437444389 0.1153987211404233
-0.8632298916880622 -0.4948334363740091 0.0998700372609586
-0.8286022122561025 -0.5533930248505723 0.08470262033152423
-0.7930998332931268 -0.6049987130147166 0.07049263565047703
-0.7575783039019645 -0.6501925756247063 0.0576604549022378
-0.7226940581278228 -0.6896041338664348 0.04646974177960524
-0.6889387063483045 -0.7238717178697305 0.03705664533453817
-0.6566767014346353 -0.7535966844494291 0.02945754537897574
-0.6261584449292377 -0.7793377688398087 0.02362718568910418
-0.5974885801189389 -0.8016417661199891 0.01943901848033002
-0.5700148047605266 -0.8214662950710403 0.01662072248962834
-0.5371164400785697 -0.8433807675807987 0.01465642085049123
0 0 0
0 0 0
0 0 0
0 0 0
0 0 0
-0.4423638300025505 0.8966927146731565 0.0160130371122772
-0.4707417873922425 0.8821076572529035 0.01697794506264941
-0.498187722005992 0.8668616717325101 0.01896933640373285
-0.5245342718801597 0.8510846748895426 0.02277441088836005
-0.5517027175400087 0.8335508755214029 0.0285840755749079
-0.5805330776499369 0.8134189035435904 0.03648332649629321
-0.6113531761539981 0.7899869954562152 0.04656007964426353
-0.6442815795817075 0.7625182672301641 0.05888241122786735
-0.6792909909304562 0.7301839073754668 0.07345210038259295
-0.7161928094468313 0.6920552184227708 0.09015228422211762
-0.7545861809413219 0.6471362499717335 0.1086939257958443
-0.7937960729206411 0.5944394587797458 0.1285671982327166
-0.8328227777021148 0.5331068454775723 0.1490077590110168
-0.8703248679080049 0.4625753758529543 0.1689930352275253
-0.9046599588626149 0.3827715152724681 0.1872867478673021
-0.9340045177102018 0.2942967728765031 0.2025462178649828
-0.9565569649046061 0.198544609536161 0.2134919457886443
-0.9707970567185081 0.09768502529372446 0.2191134648990017
-0.9757407559714664 -0.005519403880887897 0.2188595744239453
-0.9711141970861569 -0.1080452458225997 0.2127520647910204
-0.9573891797757937 -0.2070056240384343 0.2013818017217316
-0.93567145238317 -0.3000026102639224 0.1857885008013195
-0.907485525401394 -0.3853462390090804 0.167267143421869
-0.8745272252126273 -0.4621097468971062 0.1471622036549975
-0.8384483949444643 -0.5300483415362286 0.1267006102974431
-0.8007095152938717 -0.5894396817317622 0.1068884171358695
-0.7625055433953407 -0.640904207337131 0.08847086135524958
-0.7247511241547286 -0.6852447668493372 0.07194037490904823
-0.6881052463005638 -0.7233232810523756 0.05757257247393134
-0.6530153507733703 -0.7559783111344114 0.04547246143211254
-0.6197590551671409 -0.7839834713762927 0.03561783467744721
-0.5884584925982297 -0.8080461880771311 0.02789194190149547
-0.5590235077758846 -0.8288571776746246 0.02210196306215516
-0.530864156950828 -0.8472659452938345 0.01799068676374433
-0.5023229303166233 -0.864544480287888 0.01531389179359527
-0.4736798514447491 -0.8805830294995756 0.01417485423662216
0 0 0
0 0 0
0 0 0
0 0 0
-0.4125195595413326 0.9108107819568458 0.01585346861047909
-0.4316221563159078 0.9018821123513121 0.01763433009618096
-0.4550265236039336 0.8902314487251822 0.02094828197208218
-0.4798778429508377 0.8769442472148752 0.02619242488940157
-0.5062613703190743 0.8617226923313531 0.03366639933014891
-0.5346063450976835 0.8439758069865176 0.04359923167616978
-0.5652479744423593 0.8230051300827983 0.05618970765367961
-0.598402396172982 0.7979903920443873 0.07159543602268323
-0.6341579205884758 0.7679605112472674 0.08989096127940656
-0.6724346907756311 0.7317847473683196 0.1110075229908577
-0.7129154388562038 0.6881991195162812 0.134660866392138
-0.7549597004008082 0.6358834403210274 0.1602750794609565
-0.7975213618191022 0.5736040560038228 0.1869172661317501
-0.8390986098490956 0.5004302709380476 0.2132675945336914
-0.8777548207740425 0.4160112698896297 0.2376575223567429
-0.9112493653796206 0.3208638583441498 0.2582072394487488
-0.9372964645214558 0.216580438566436 0.2730718792295343
-0.9539228345908505 0.1058485596586845 0.2807620132146412
-0.9598360751279311 -0.007791019099890352 0.2804532205277614
-0.9546821081317705 -0.1204256783643357 0.2721759144442575
-0.9390959490721537 -0.2283593472150006 0.2568088919329107
-0.9145316839062375 -0.3286226624784474 0.2358790894445666
-0.8829457542985085 -0.4192627488042904 0.2112475856224341
-0.8464489304256758 -0.4993761685251882 0.1847908290211714
-0.8070230951137508 -0.5689456249919571 0.1581600447506656
-0.7663472053298951 -0.6285823842085326 0.1326504698287044
-0.7257287966790454 -0.6792642046591831 0.1091689238726457
-0.6861119044817861 -0.7221213861396735 0.08826753768001458
-0.6481275972697279 -0.7582883044625662 0.07021014864430394
-0.6121591178705011 -0.7888162891705496 0.05504612926640216
-0.5784008152688214 -0.8146356194989328 0.04267674237746615
-0.5468966980761272 -0.8365530848679608 0.03290802077499626
-0.5175536902945677 -0.8552709087005637 0.02549216336419185
-0.4901732884230092 -0.8713915945500097 0.02017018255159301
-0.4648858006630207 -0.8852123089921786 0.01674396460333149
-0.4447170059842009 -0.8955426660417801 0.01516963701702712
0 0 0
0 0 0
0 0 0
-0.33550303265012 0.9419211038723528 0.01491137694716349
-0.3645198010791711 0.93105640851059 0.01610213627325731
-0.3861331595101957 0.9222521313927856 0.0187667063742604
-0.4080873668886288 0.9126456656397967 0.02329356080117183
-0.4313619440598535 0.9016796106500801 0.03001254662342735
-0.4563978257050249 0.8889085207506832 0.03927679249324238
-0.4836178032167963 0.8737671472598625 0.05142754885391302
-0.5134040936771849 0.8555442115697507 0.06678576678456052
-0.5460715826393447 0.8333507347429904 0.08562931470634851
-0.5818351439158229 0.8060846573669954 0.1081452285678262
-0.6207517190373611 0.7724089887593564 0.1343564564727312
-0.6626316500246761 0.7307634046902407 0.1640248235819886
-0.7069240217621643 0.6794348048083657 0.1965369519215781
-0.7525929485339019 0.6167166075244106 0.2307909873037279
-0.7980193091784439 0.541180952429238 0.2651195181538731
-0.8409825689869433 0.4520612194881529 0.2973028296115002
-0.8787876955410954 0.3496864262408674 0.324733104977705
-0.9085813129953733 0.235835112765069 0.3447633931592657
-0.9278333563033559 0.1138274093521155 0.3552021731507781
-0.9348617100200768 -0.01178572871015432 0.3548164028580248
-0.9292096647447686 -0.1359212834570891 0.3436492450861662
-0.9117188572351614 -0.2538377839694597 0.3230094500030682
-0.8842747087753358 -0.3618733499643962 0.2951371172960807
-0.8493479311137752 -0.4578202885606774 0.2626950233540174
-0.8095155285634997 -0.5409004834766672 0.2282789433768803
-0.7671004056080778 -0.6114656854783695 0.1940790642969766
-0.723978650131606 -0.6705963686411403 0.1617263878250331
-0.6815317061454579 -0.7197323353387466 0.13228718375676
-0.6406906819510733 -0.7603988285911114 0.1063441184943196
-0.6020222824560765 -0.7940369181453013 0.08411030881341548
-0.5658210414516626 -0.8219189816321287 0.06554186969685628
-0.5321880304710063 -0.8451227488759946 0.05043252477988328
-0.5010880061920362 -0.8645401100757191 0.03848646672212321
-0.4723874631975452 -0.8809014183731649 0.02937304413801236
-0.445890046388608 -0.8947980918137699 0.02276930868518177
-0.421369519095152 -0.9067026313589405 0.01838658925122837
-0.3980742876813525 -0.9172147663459838 0.01593530306790323
-0.3685953358928057 -0.9294681166645528 0.01504986585052673
0 0 0
0 0 0
-0.3052747796861039 0.9521524447792162 0.01459557427995646
-0.3205092658434751 0.9470999802187845 0.01659632423322544
-0.3384032778910778 0.9407833281018622 0.02024724865648169
-0.3578735060022113 0.9334095555619665 0.02594523631222281
-0.3789838448684 0.9247740026258936 0.03412168512907501
-0.4020253629438899 0.9145112607906646 0.04521903843407277
-0.4273910752726086 0.9020941538192062 0.05969092412195783
-0.455504939443205 0.8868103292041005 0.07799160313621406
-0.486775549341854 0.8677211024237887 0.1005467700693593
-0.521549397408714 0.8436110258325598 0.1276975456159729
-0.560041745988754 0.8129437598267744 0.1596110463237912
-0.6022322229218686 0.7738477636652921 0.1961529717970414
-0.6477218134698159 0.7241672297893903 0.2367240495905165
-0.6955627590057198 0.6616258725593275 0.2800779410172449
-0.744097750484461 0.5841529244695818 0.3241664673552763
-0.7908790102776381 0.4903924176055514 0.3660951622969716
-0.8327659606054845 0.3803381060029188 0.4022981232605207
-0.8662880751712166 0.2559104918318882 0.4290160731097488
-0.8882701413497299 0.1211836130383129 0.4430470493271693
-0.896559903172372 -0.01799981363953082 0.4425566028571811
-0.8905705691020701 -0.1550372471282867 0.4276067275571059
-0.8713857023562156 -0.2838595396164769 0.4001383754376558
-0.8413890796985808 -0.3999912237557531 0.3634163417931973
-0.8036194610559549 -0.5010172079854337 0.3212125762086797
-0.7611328322872833 -0.5864392800410959 0.2770663863394819
-0.7165641780459339 -0.6571619757135396 0.2338245419489414
-0.671932793880345 -0.7148921573892563 0.1934826188873004
-0.628634605745904 -0.7616391813413446 0.1572395939462376
-0.5875366084031318 -0.7993816999686496 0.1256568006173018
-0.5491046409783522 -0.8298883686151756 0.09884021900662142
-0.5135241079555064 -0.8546490881128457 0.07660239380321156
-0.480796651163333 -0.8748725394310797 0.05858856526266832
-0.4508112652710043 -0.8915159645932116 0.04436764564625167
-0.4233992230465903 -0.9053237735897428 0.03349571460308592
-0.3983927674284759 -0.9168586881029605 0.02556069073398035
-0.3757124927857694 -0.9265158196009516 0.02021283735351648
-0.3555118662023334 -0.9345139250113991 0.01717663963419674
-0.339088300702315 -0.9406152527111789 0.01618859765084996
0 0 0
0 0 0
-0.2628800660058666 0.9647054084667599 0.015412519966985
-0.2733132140922502 0.9617617301301581 0.01772742112120007
-0.2877923994795071 0.9574384275203169 0.0220724332426327
-0.3044132486464167 0.9521048814073831 0.02879008247239153
-0.322827525976538 0.9456809978011103 0.03833847766622615
-0.3432052059670275 0.9378622273438174 0.05123113427227183
-0.3659167152893258 0.9281577588198319 0.06803037714445567
-0.3914190293957867 0.9158661034550136 0.08933321873183672
-0.4201996333524259 0.9000205674518503 0.1157378343245441
-0.4527267910276844 0.879317592912753 0.1477803216937124
-0.4893783623997095 0.8520424172968328 0.1858293236869459
-0.5303301358545021 0.8160172488840064 0.2299256326039411
-0.5753920375778346 0.7686159526244463 0.279559511487702
-0.6237948269804529 0.706913140880551 0.33339739813445
-0.6739597557192702 0.6280516577010092 0.3890107491186272
-0.7233327413233088 0.5298913867381519 0.4427243652549801
-0.7684185968473414 0.4119014241917234 0.4897653282624164
-0.805161173425782 0.2760588512197005 0.5248876027025947
-0.8297117300253714 0.1273030859641348 0.5434817102371642
-0.8393953985050948 -0.02691571187319149 0.5428544090479803
-0.8334635606720797 -0.1780737589362648 0.5230948569907061
-0.8132439501971048 -0.3184658117380253 0.4870459980554701
-0.7816280007786692 -0.4427048753505625 0.4393973847664359
-0.7422030173005268 -0.5482718616010144 0.3853993343099483
-0.6984430539950327 -0.6351580048624172 0.3297750887882306
-0.6532072092076221 -0.7050351247324537 0.2761264469997085
-0.6085674829601467 -0.7603969507518316 0.2268085006583038
-0.565860259274811 -0.803914697411762 0.1830937635715604
-0.5258389236711382 -0.8380564775957705 0.1454467830931589
-0.4888429790511573 -0.8649179340740663 0.1137959100734232
-0.4549423767064658 -0.8861866983347196 0.08775288924748105
-0.4240457985913629 -0.9031759582799288 0.06677087001189265
-0.395978096946915 -0.9168840169095925 0.05024983854729429
-0.370541980548127 -0.9280541981305637 0.03760380278253035
-0.3475900231010438 -0.9372193370365065 0.028303535564782
-0.3271590684307148 -0.9447153325905416 0.02190626193326348
-0.3098157795590756 -0.9506247316895865 0.0180776723143053
-0.2977372349983314 -0.9545043179428745 0.01655433248294458
0 0 0
0 0 0
-0.212845563428346 0.976939475026798 0.01691237012466573
-0.2219314040812607 0.9748726318444533 0.01923027725200329
-0.2340186488811982 0.9719348447075644 0.02404016678604014
-0.2477891188317884 0.9682978046114656 0.03162141953140722
-0.2630948291395733 0.9638371244533255 0.0424158980284911
-0.2801674864441698 0.9582579356730874 0.05699042252088271
-0.29940070162165 0.9510947989913128 0.0760125200222804
-0.3212791067926552 0.9416655407106126 0.1002284639047359
-0.3463435101521263 0.9289967348037373 0.1304271432620462
-0.3751540085605964 0.9117267662380206 0.1673731567070338
-0.4082284787419232 0.8879961394152289 0.2116893136832948
-0.4459362857190206 0.8553487101119872 0.263665343169866
-0.4883287858943943 0.8106936591012975 0.322971806756961
-0.5348982667997052 0.7504162026212015 0.3882774356285039
-0.5842867244496802 0.6707632683534406 0.4568212576705175
-0.6340263766382149 0.5686290250027132 0.5240911997462655
-0.6804768854589567 0.442750962948822 0.5838859419132888
-0.7191724444274993 0.2950376632512827 0.629081689798231
-0.7456930949274723 0.1313707803137273 0.6532101700503828
-0.7568649872257821 -0.03888659353291839 0.6524133842550455
-0.7517447800283753 -0.2048883634864662 0.6268177918725084
-0.7318313866870841 -0.3570094876349849 0.5804886279663579
-0.7004093382732026 -0.4889108898781618 0.5199931736265756
-0.6614598987154864 -0.5981355363478346 0.4524430158033013
-0.618702284482463 -0.6854088207502279 0.3839560282297477
-0.5750611247412165 -0.7533815697399914 0.3189371618163573
-0.5325415959334409 -0.8054650296621206 0.2600491003484969
-0.4923480391138646 -0.8450451757777913 0.2085474988471784
-0.455089317907152 -0.8750796095861222 0.1647100167366963
-0.4209777159660252 -0.8979637064085199 0.1282144478329261
-0.3899848777742472 -0.9155465472991067 0.09841907760231079
-0.3619510311317612 -0.9292114205102039 0.07454922572410604
-0.3366581119144552 -0.939971483217201 0.05581152587637333
-0.3138827649561641 -0.9485561602669108 0.04145866234175103
-0.2934504188439321 -0.9554772792043004 0.03082240426488574
-0.2753299441676172 -0.9610667275360318 0.02332738879170403
-0.2598869708691148 -0.965461864421051 0.01849731659196355
-0.2487526103460807 -0.9684349463247696 0.01599667412155821
0 0 0
-0.1222907226512849 0.9923421073889671 0.01738162985021422
-0.152116072289545 0.9882013651857683 0.01785391823061395
-0.1662438678238913 0.9858719929963867 0.02047900965096904
-0.1773489574831372 0.9838096811493326 0.02580423524331717
-0.1883579332193691 0.9815057673738252 0.03417188325576272
-0.2001922318140758 0.9786728774118134 0.04607026524538824
-0.2133591995152363 0.974995639246648 0.06213980553749082
-0.22831568823402 0.9700292351446974 0.0831578587435897