# OOMMF: rectangular mesh v1.0
# Segment count: 1
# Begin: Segment
# Begin: Header
# Title: 
# Desc: time = 2.3599999999999997e-09
# Desc: stepsize = 2.959601542541745e-14
# Desc: step = 15102
# meshunit: m
# valueunit: (none)
# valuemultiplier: 384000.0000000001
# xmin: 0
# ymin: 0
# zmin: 0
# xmax: 9.357999999999999e-08
# ymax: 9.357999999999999e-08
# zmax: 2.3395e-08
# ValueRangeMaxMag: 1
# ValueRangeMinMag: 0
# meshtype: rectangular
# xbase: 1.16975e-09
# ybase: 1.16975e-09
# zbase: 1.16975e-09
# xstepsize: 2.3395e-09
# ystepsize: 2.3395e-09
# zstepsize: 2.3395e-09
# xnodes: 40
# ynodes: 40
# znodes: 10
# End: Header
# Begin: Data Text
0 0 0
0 0 0
0 0 0
0 0 0
0 0 0
0 0 0
0 0 0
0 0 0
0 0 0
0 0 0
0 0 0
0 0 0
0 0 0
0 0 0
0 0 0
0 0 0
-0.9869599929137551 0.1606995983014402 0.00925264791482433
-0.9914946122710242 0.1297416786810053 0.0102728112299286
-0.9960682277097385 0.0879128781788501 0.01092756136980077
-0.9990598889499523 0.04187693223255252 0.01120985450836766
-0.9999219415394016 -0.005340594383352793 0.01129552476451411
-0.9986077517362821 -0.05149927892355823 0.01141851315019092
-0.9955480289327342 -0.09350862216266308 0.01184312751715826
-0.9921299445209483 -0.1245642459340128 0.01272485048046668
0 0 0
0 0 0
0 0 0
0 0 0
0 0 0
0 0 0
0 0 0
0 0 0
0 0 0
0 0 0
0 0 0
0 0 0
0 0 0
0 0 0
0 0 0
0 0 0
0 0 0
0 0 0
0 0 0
0 0 0
0 0 0
0 0 0
0 0 0
0 0 0
0 0 0
0 0 0
0 0 0
0 0 0
-0.9292702417559261 0.3692258335845819 0.01136228853062114
-0.9403401815108272 0.3400045299158703 0.01254044149431028
-0.9541385106398426 0.2990849113614031 0.0129583297505602
-0.9680004108033936 0.2506385398363 0.01247104779834293
-0.9814529616584123 0.1913521255847332 0.01159517512307629
-0.9897125923799308 0.1425610460905531 0.01205539805082119
-0.9954943283949846 0.09398040088502771 0.01259866591777515
-0.9989337226265711 0.04432314826453157 0.0129180620582384
-0.9998978529016891 -0.005861281329938813 0.01303568731455457
-0.9983603878875034 -0.05572765684034883 0.01307532638972326
-0.9944169126167892 -0.104699836117512 0.01315097785941689
-0.987977856440643 -0.1540345446092676 0.01315728885323727
-0.9767592901750193 -0.2139886087435912 0.01225415785659513
-0.9646312003137423 -0.2633815061784964 0.01080877349263476
-0.9522149067568944 -0.3052635305989514 0.01004729994683066
-0.9421052303175816 -0.3351560771877146 0.01039898708521761
0 0 0
0 0 0
0 0 0
0 0 0
0 0 0
0 0 0
0 0 0
0 0 0
0 0 0
0 0 0
0 0 0
0 0 0
0 0 0
0 0 0
0 0 0
0 0 0
0 0 0
0 0 0
0 0 0
0 0 0
0 0 0
0 0 0
-0.880838346884609 0.4733038400489495 0.01035768567329949
-0.8956487681776818 0.4446164556986885 0.01137942809358665
-0.9171117973344293 0.3984440130854782 0.01217865453783294
-0.9342686065534079 0.3563165771642798 0.01344126655806349
-0.9502649114732897 0.3111111253146031 0.01436891534325878
-0.965023967705934 0.261741994116609 0.01482802309672093
-0.9780210636035311 0.2079553546777227 0.01514495324125793
-0.9878006076477605 0.1549233406107959 0.0157707978462211
-0.9946785286832488 0.1017174433116256 0.01637639467871741
-0.9987080988312931 0.04797567405732158 0.01674717968881077
-0.9998395749741812 -0.00611267404088975 0.01683625645795974
-0.9980479445102546 -0.06018421092213544 0.01667816580249352
-0.9933429312965032 -0.1140356144469349 0.01630029082501211
-0.9856624625114337 -0.1680044374213437 0.01562110759945987
-0.9747183434446892 -0.2229699490939768 0.01444135566592676
-0.9617282910735753 -0.2736952012081028 0.01302424601872405
-0.947233112656889 -0.3203213348581528 0.01198635561930152
-0.9313907838220667 -0.3638364386395376 0.0115867911612244
-0.9114279855692073 -0.4113005635888414 0.01143999618696146
-0.8975128938710726 -0.4408340541941205 0.0116594167070171
0 0 0
0 0 0
0 0 0
0 0 0
0 0 0
0 0 0
0 0 0
0 0 0
0 0 0
0 0 0
0 0 0
0 0 0
0 0 0
0 0 0
0 0 0
0 0 0
0 0 0
0 0 0
0 0 0
-0.84403920459881 0.536173148199535 0.01077850870980663
-0.8649655752673185 0.501700670426514 0.01144512542799246
-0.885415248106076 0.4646227800448967 0.01286509559260852
-0.9066891460210638 0.4215505363180983 0.01448923108786779
-0.9263215580314083 0.3763813397176007 0.01629288920505012
-0.944377437611062 0.3283722304555676 0.01797035327420959
-0.9606319048946288 0.2771467834011946 0.01939081609648611
-0.9746336025714495 0.2228544913627312 0.02062077636889235
-0.9857125888976963 0.1670274132465643 0.02173787737481162
-0.9936641307310393 0.1100930425182182 0.02260790321124946
-0.9983619808253611 0.05234487185270218 0.02309479666905873
-0.9997152333326318 -0.005843451258152144 0.02313668775073396
-0.9976877519518503 -0.06405035424702198 0.02273107401980346
-0.992303013497204 -0.121882548139433 0.02189460808980911
-0.9836319085589506 -0.1790043939085414 0.02063238779472481
-0.9718302319250829 -0.2349167893822547 0.01897636379216647
-0.9574792000628969 -0.2879926196480919 0.01714154237937699
-0.9410250803435473 -0.3379832236380197 0.01546411018042983
-0.9227381512760205 -0.3851680580911105 0.01413758133608665
-0.9026526192000848 -0.4301687365653786 0.01315701839217439
-0.8831602079246108 -0.468901368054278 0.01263147558222481
-0.863277510579577 -0.5045740437933525 0.0125289288269955
0 0 0
0 0 0
0 0 0
0 0 0
0 0 0
0 0 0
0 0 0
0 0 0
0 0 0
0 0 0
0 0 0
0 0 0
0 0 0
0 0 0
0 0 0
0 0 0
-0.7715271096176595 0.6360849502766435 0.01191029624232808
-0.7917125920006547 0.6107644652099862 0.01256740642950427
-0.8223934001707941 0.5687778446100152 0.01268301369174238
-0.8478902378122902 0.5299867629922143 0.01400627272518755
-0.8717464312909581 0.4896921332548804 0.0161175109667348
-0.8949030229411116 0.4458713482149925 0.01863653325607747
-0.916744613242239 0.3989030703086489 0.02134606731157847
-0.9369271143054313 0.348698662916045 0.02401718051436061
-0.9550610624749162 0.295223402014143 0.0264860311764418
-0.9706691286685034 0.238704374200978 0.02866468885663032
-0.9832259662220348 0.179827867761396 0.0304735512065008
-0.9923635769961762 0.1191818330010941 0.03178398549353036
-0.9978267306662445 0.05733340755524219 0.03247608267661574
-0.9994591954443711 -0.005122144387066116 0.03248199930065775
-0.9972081761439207 -0.06756557271396506 0.03179224458179888
-0.9911286619491281 -0.1293722150639345 0.03044347930808292
-0.9813864579705348 -0.1899152467193513 0.02850998378770626
-0.9682751452058205 -0.248517641666157 0.02611943639013757
-0.9522599333249145 -0.3043838441694642 0.02348392626134858
-0.9338051094910285 -0.3571736116874007 0.02085733929880676
-0.913327848929577 -0.4068076246386132 0.01843358092071584
-0.8912332193856026 -0.4532518172771606 0.01631376101717792
-0.8682011352298791 -0.4959992003292802 0.01454586051986382
-0.8434877994937202 -0.5369907205576216 0.01301146187972142
-0.8138699402334855 -0.5809371458006458 0.01130278785705339
-0.7942310899762511 -0.6075233284207399 0.01060099710978065
0 0 0
0 0 0
0 0 0
0 0 0
0 0 0
0 0 0
0 0 0
0 0 0
0 0 0
0 0 0
0 0 0
0 0 0
0 0 0
-0.7251254795260471 0.68852925968621 0.01097713524010284
-0.7499386460985319 0.661397407285543 0.01206220228076487
-0.7750958610150336 0.631697608557244 0.01358446099121901
-0.8028302617847154 0.5960093092826115 0.01537771150559352
-0.8297229458293006 0.5578875811861637 0.01792428304281241
-0.8558301235417055 0.5168234983456058 0.02117241593201733
-0.8811712905083374 0.4721411831770319 0.024896986405249
-0.9053321346440217 0.4237223960170316 0.0288627284656989
-0.9278434728419713 0.3715222377143196 0.03282859711126773
-0.9481865843580948 0.3156021229288849 0.03657186413228661
-0.9657959910742797 0.2562156274295964 0.03989556223074943
-0.9801009299491595 0.1938716735167629 0.04261386300961102
-0.9906166384519568 0.1292063005436479 0.04454668923690331
-0.9969767950857217 0.06294927576289142 0.04554842194335337
-0.9989542554289093 -0.004099215955682385 0.04553671034475176
-0.9964757827681587 -0.07110088061316985 0.04450482145359972
-0.9896281987419876 -0.1372154733321683 0.04251990278584449
-0.9786550865339859 -0.2016354082222822 0.03971629076575134
-0.9639450345324677 -0.2636152048270244 0.03629041449481062
-0.9460061243601632 -0.322516280865787 0.03249094103844911
-0.9253851275114219 -0.3779489383423564 0.02858261336118221
-0.9026236963157376 -0.429715837061027 0.02479439913076349
-0.8782499536815243 -0.4777276330641919 0.02129148809465893
-0.8527673288518662 -0.5219747215178846 0.01817341297553443
-0.8262957496425796 -0.5630240027042084 0.01546953462578349
-0.7989243833386541 -0.601285685548635 0.0132421320510903
-0.774021183092976 -0.6330467223191 0.011960580437151
-0.7497058772877049 -0.6616668347091603 0.01175148527775757
0 0 0
0 0 0
0 0 0
0 0 0
0 0 0
0 0 0
0 0 0
0 0 0
0 0 0
0 0 0
0 0 0
-0.6724219905566325 0.7400936596549883 0.01049006932015372
-0.6989823776930034 0.7150459984484724 0.01152630805861227
-0.7254782526015739 0.6881138989476826 0.01343752496499607
-0.7526241259117546 0.6582542073104923 0.01607245014309424
-0.7808467916392741 0.6244221603450576 0.01937146501075624
-0.809216250819341 0.5870432836972413 0.02343592276504926
-0.8373841394958532 0.5458859311791046 0.02821972823240591
-0.865040285169364 0.5005795106944311 0.0335478539854519
-0.8917075941843553 0.450913116635109 0.03917815361092471
-0.9168089302721597 0.3968018760545242 0.04482919286388654
-0.93969496136186 0.3383093437775941 0.05020126994315732
-0.9596697487945361 0.2756988833155632 0.05499180836436466
-0.9760385596452479 0.2094722010367386 0.0589077845318739
-0.9881794205268123 0.140343497999988 0.06168577969370689
-0.9956035012471756 0.06920318975889871 0.0631235837984408
-0.9980022623578293 -0.002932714634859834 0.06311009042557865
-0.9952774671864264 -0.07498672322175366 0.06164214995792652
-0.9875502712879098 -0.1458904137268394 0.05882557999532997
-0.975148085261251 -0.2146538177316405 0.05486301435892284
-0.9585706749250106 -0.2804264724992642 0.05003253636813546
-0.9384383235499199 -0.3425480791365944 0.04465788141688644
-0.9154244098226838 -0.4005892260282896 0.03906944958463956
-0.8902043386439756 -0.4543232736980238 0.03356483927791279
-0.8634232577083818 -0.5036810514706179 0.02838444006313327
-0.835661273832501 -0.54873327070032 0.02370723609303213
-0.807361897033012 -0.5897287254883862 0.019667169422656
-0.7790132164481551 -0.6267927660765572 0.01640844274140144
-0.7516613605740523 -0.6593976568071627 0.01413963285192902
-0.7251011625235187 -0.6885211130798518 0.01292211090818863
-0.6988977125242717 -0.7151103605764625 0.01261584814991763
0 0 0
0 0 0
0 0 0
0 0 0
0 0 0
0 0 0
0 0 0
0 0 0
0 0 0
-0.6189048596854749 0.7854061935483387 0.009689468180022512
-0.6441992517793348 0.7647794478792642 0.0109416684483184
-0.6704090915865385 0.7418774845443854 0.01301721338101458
-0.6977067995347416 0.7162038404988617 0.01603997311931778
-0.7260962422396604 0.6873016817089709 0.02001612663489722
-0.7555121954005288 0.6546598612325408 0.02493569112864517
-0.7855454217368295 0.6180372353521661 0.03079555335689355
-0.8158288948839238 0.5770753842964448 0.03751286594737582
-0.845943298872184 0.5313790394836304 0.04490268912549527
-0.8753341981875103 0.4806388987405095 0.0526905162333628
-0.9033173805902659 0.424680988720737 0.06052906527212844
-0.9291015748720518 0.3635159237522101 0.06801791491107424
-0.951825484406214 0.2973953942709631 0.07472768363394125
-0.9706179541196509 0.2268560478640045 0.08023166886029016
-0.9846798675293977 0.1527246607978157 0.08414711205073921
-0.9933697946408291 0.07608571600152017 0.08618245132144203
-0.99627806229297 -0.001788064152166863 0.08617903121033622
-0.9932751416589999 -0.07953409408602904 0.08413572867817762
-0.9845247740519212 -0.1558117378789965 0.08021017153167039
-0.9704595720822694 -0.2294091378906703 0.07469716464604133
-0.9517248257663475 -0.2993280009163691 0.06798973369138216
-0.9291024827589376 -0.3648350790956857 0.06053050133959305
-0.9034305263386453 -0.4254756311020323 0.0527614576921925
-0.8755366016470976 -0.4810439648528962 0.04508173748711503
-0.8461906395448918 -0.5315363662631668 0.03782185725681852
-0.8160705526684733 -0.5771074988142951 0.03123760361616493
-0.7857451218879735 -0.6180236475483776 0.02552203950024271
-0.7557423831988282 -0.6545376523257584 0.02083055267725259
-0.726638637900236 -0.6868022018127926 0.01729235367407038
-0.6987029727869861 -0.7152553391832704 0.01496514578788605
-0.6721613650673496 -0.7402753058412987 0.01384091298897256
-0.6470964416852998 -0.7622812986907548 0.01390743774243346
0 0 0
0 0 0
0 0 0
0 0 0
0 0 0
0 0 0
0 0 0
0 0 0
-0.5925640805197994 0.8054533509490214 0.01061649295750787
-0.6129000431035172 0.7900614620652159 0.01250693100163573
-0.6384336904440515 0.7695189409330998 0.01558917737370432
-0.6662257672668171 0.7454850334086701 0.01988195144884557
-0.6955988460678638 0.7179806497357354 0.02541715865526457
-0.7263005825715257 0.686622623677182 0.03219994426897495
-0.7580453624934862 0.6509619105464708 0.04019725637163889
-0.7904908157163724 0.6104866685354238 0.04929805075845724
-0.8231821606567101 0.5646735793983364 0.05928641586417848
-0.8555029211268588 0.513067404032683 0.06983259169309727
-0.8866634441452476 0.4553550565872511 0.0804966412771882
-0.9157167666313258 0.3914437343525416 0.09074473068121591
-0.9416022802079332 0.3215415009153649 0.09998104368486339
-0.9632222358338716 0.2462227563520145 0.1075977632184499
-0.9795482214500042 0.1664538361657022 0.1130415953525728
-0.9897410949861828 0.0835622998523164 0.1158874753325106
-0.9932601385835694 -0.0008552506120468238 0.1159032598650209
-0.9899359915402278 -0.08507541923227746 0.1130880439998765
-0.9799893714315477 -0.1674135402919509 0.1076732947769087
-0.9639918656927728 -0.2463785146394421 0.1000865145872752
-0.9427805509563324 -0.3207869607028405 0.09088761511618842
-0.9173488495286054 -0.3898199772375529 0.08069370244980412
-0.8887383343974693 -0.4530220667967764 0.07010834449328161
-0.8579510668260062 -0.51025460295707 0.05966747098076596
-0.8258897484716826 -0.5616273268456847 0.04980832369746027
-0.7933245014166076 -0.6074262048376682 0.04086124237707022
-0.7608882152351722 -0.6480402793024438 0.03305934539346352
-0.7291126562766117 -0.6838782351788634 0.02655737008640756
-0.6984789382726072 -0.7153091607667024 0.02144708168509073
-0.6694470747093029 -0.7426473518248173 0.01776302313072144
-0.6429118669944965 -0.7657831396333636 0.01550852445975245
-0.6220230614790494 -0.7828613841312477 0.01467529298982393
0 0 0
0 0 0
0 0 0
0 0 0
0 0 0
0 0 0
0 0 0
-0.5166929211901465 0.8560818399409647 0.01234133361047715
-0.5490365793192051 0.8357020685469879 0.01268413165145944
-0.5751806830806552 0.8178875057844963 0.01507347645654576
-0.6020702741596439 0.7982124681156137 0.01918959921705952
-0.6305790426473414 0.7757249666123507 0.02491680453487127
-0.6607993673406111 0.749869146233994 0.0322561567541592
-0.6926742548842039 0.7200718828087919 0.04121723194022189
-0.7260363748567047 0.6857051909147553 0.05176459733730306
-0.7605972052957735 0.6460841948407096 0.06377385415113733
-0.795905585775572 0.6005047728371321 0.07699556046336542
-0.8313033677864103 0.5483139188045434 0.09103052868228613
-0.8659011754550636 0.4890019491673493 0.1053197420053423
-0.8985841664318277 0.4223134183551068 0.1191548258160017
-0.9280579531400062 0.3483665537169793 0.1317162854962754
-0.9529433387221699 0.26775720001237 0.1421445567954648
-0.9719178545379881 0.1816131043998316 0.1496407843488184
-0.9838841460949567 0.09156696861204157 0.1535821517045482
-0.9881291350112774 -0.000366249099646426 0.1536251229567003
-0.984432290698808 -0.09199335187369148 0.1497674471991171
-0.9730923396759097 -0.1811848847349495 0.1423493449498339
-0.9548663427167421 -0.2660976750241249 0.131993541105268
-0.9308420645823259 -0.3453290613465245 0.1195026786044617
-0.9022811411670211 -0.4179798636957178 0.1057429706375176
-0.8704710171207771 -0.4836325666297274 0.09154096813919917
-0.8366113206784551 -0.5422712377279613 0.07761058462371954
-0.8017434929995493 -0.5941760216150197 0.06451532198345421
-0.7667205509550278 -0.6398174532066311 0.05266140252023697
-0.7322104303239697 -0.6797628765280946 0.04231214269021364
-0.6987252682308102 -0.7146000329087351 0.03361238614881273
-0.6666556392288285 -0.7448906340570793 0.0266120645280332
-0.6362824688254409 -0.7711625881887928 0.02128103482831282
-0.6077457896365068 -0.7939386407099092 0.01750685485175429
-0.5804470669805173 -0.8141592315056826 0.01503157303114354
-0.547939262259331 -0.8364111455032134 0.01337761386429737
0 0 0
0 0 0
0 0 0
0 0 0
0 0 0
-0.4532259388595821 0.8913173285417026 0.0118181295530389
-0.4812547766230759 0.876488739781067 0.01270153590988878
-0.5084751670512579 0.8609535961524388 0.01455712074477502
-0.5347120544854679 0.8448395952032269 0.01814048413844072
-0.561820155413869 0.8269224165537904 0.0236099549253077
-0.5905884090081818 0.8063762571139047 0.03102681272954221
-0.6213045798353979 0.7825238422754925 0.04046054060389727
-0.6540524093922562 0.7546622216730593 0.05196515128108815
-0.6887740631076962 0.7220079866543342 0.06553439705581632
-0.7252565274825373 0.6836910086543457 0.08105290882611352
-0.7630848790928664 0.6387870170823139 0.09824771807479658
-0.8015864505377492 0.5863897864957281 0.1166455340241803
-0.8397870449195863 0.5257236855565344 0.1355445521962517
-0.8763990011193357 0.4562944451864522 0.1540135387848032
-0.9098623243351162 0.3780638540925358 0.1709335338200127
-0.9384568790218697 0.2916144100300304 0.1850938196682124
-0.9604884418380953 0.1982518131632943 0.1953411673787519
-0.974524204391167 0.09999042501038855 0.200759781734301
-0.9796242509244792 -0.0006095125256875746 0.2008381325723122
-0.9755020802383014 -0.100735630207456 0.1955710210063157
-0.9625628555119115 -0.1976785920909135 0.1854613798549677
-0.9418095876959558 -0.2891531630356421 0.1714209696345711
-0.9146531694743196 -0.3735063616737 0.1546045838901825
-0.8826879141207864 -0.4497818298336889 0.1362290417515779
-0.8474906681542553 -0.5176598173790717 0.1174218074401836
-0.8104780565110238 -0.5773213592795143 0.09912299447538446
-0.7728295378831722 -0.6292880433088139 0.08204306139977094
-0.73546604840871 -0.6742741020911925 0.06666428494473466
-0.6990673274059388 -0.7130689062903515 0.05326919030170788
-0.6641099101467202 -0.7464554346090442 0.04197989265752881
-0.6309049430395731 -0.7751666681280526 0.03279618074541693
-0.599611165561348 -0.7998811409942301 0.02562441054795587
-0.5701795750329325 -0.8212693959977411 0.02029362985691837
-0.5420724618040368 -0.840168437229187 0.01656632842775201
-0.5137020150620293 -0.8578509009034712 0.01421518696018987
-0.4853681207463965 -0.87420821360537 0.01333366521324134
0 0 0
0 0 0
0 0 0
0 0 0
-0.4237439404577159 0.9057050532281062 0.01180802618732963
-0.4427681886668961 0.8965341529936784 0.01352196807210549
-0.4661459430013525 0.8845506180673609 0.01667824631156941
-0.4910456149757381 0.8708647708502711 0.02165074837051943
-0.5175225398572225 0.855187678552643 0.02871332776726433
-0.5459658572531545 0.8369420185070578 0.03807020319304303
-0.5766707685774077 0.8154514943017166 0.0498967444773615
-0.609814503981535 0.7899291062890852 0.06432944715354762
-0.6454480789560698 0.7594514351348094 0.081426623677993
-0.6834582486252437 0.7229529704934625 0.1011129311255131
-0.7235031042515986 0.6792541131523598 0.1231142067508917
-0.7649338103943403 0.6271359396394434 0.1468903636327036
-0.8067214868093975 0.5654740353996346 0.171579596715016
-0.847415882613311 0.493436878252503 0.195975429774059
-0.8851700582155206 0.4107354357459956 0.2185643380363743
-0.9178646724738543 0.3178790415643815 0.2376496538153887
-0.9433463802824761 0.2163582616376226 0.2515684984832076
-0.9597533012592154 0.1086610779468789 0.2589717568798954
-0.9658499215335529 -0.001940329466630772 0.2590948941897351
-0.9612647164869063 -0.1118144372655784 0.2519279191680215
-0.946545237087853 -0.2174951385210093 0.2382183428412408
-0.9230146371363186 -0.3161469609494251 0.2193059021425381
-0.8924908088877658 -0.4058435258359996 0.1968532158433423
-0.8569685065498699 -0.4856197493405735 0.1725643005725223
-0.8183521760855083 -0.5553433628810315 0.1479644051794215
-0.7782838439753231 -0.6154920490181749 0.1242730694977919
-0.738067499211649 -0.6669166968015695 0.1023644769182409
-0.6986665349811069 -0.7106412404244868 0.08278949393153701
-0.660744491585493 -0.7477185844311875 0.06583035269272941
-0.6247229940704642 -0.7791419787610996 0.05156508132324388
-0.5908365402312106 -0.805802707495603 0.03992717521148
-0.5591695655457615 -0.8284826948062373 0.0307542090446015
-0.529670031244217 -0.8478690686542684 0.02382646472084192
-0.502181080978754 -0.8645557717020605 0.01890712891119064
-0.4768665695575624 -0.8788335236844442 0.01580862064778861
-0.4567380760616472 -0.8894836223550268 0.01446428144376981
0 0 0
0 0 0
0 0 0
-0.3476407217526761 0.937561402116766 0.01116001075814818
-0.3763923498289087 0.9263790634634936 0.01227313190560605
-0.398002512526305 0.9172642600208671 0.01484174218610699
-0.4200846349237076 0.9072822152942451 0.01918023231823881
-0.4435768668495162 0.8958711223964745 0.0255831048164099
-0.4688862826713234 0.8825893960792099 0.03437458146949644
-0.4963993787695415 0.8668816867310095 0.04586717745417547
-0.5264598889095571 0.8480551897358339 0.06035213775381166
-0.559342159102955 0.8252516291358145 0.07807751058229163
-0.5952189002946405 0.7974165433984244 0.09920341247430432
-0.6341053218132907 0.7632825288219547 0.1237344820299689
-0.6757753114032337 0.7213848214742673 0.1514320568585184
-0.7196551918683417 0.6701319508970477 0.1817128867302941
-0.7647118173873678 0.6079570318629629 0.2135511267975069
-0.8093673005028839 0.5335691971579862 0.2454149235903472
-0.8514897309492014 0.4463001002822451 0.2752843231571931
-0.8885168927362307 0.3464916391072803 0.3008010561003788
-0.9177499587428053 0.2358082689574318 0.3195770228268587
-0.9367940210402865 0.1173173508050454 0.3296264572865121
-0.9440366850375849 -0.004783669410881235 0.3298057819538869
-0.9389974431539493 -0.1257826055353429 0.3200977005463893
-0.9224072277186821 -0.2412311489843843 0.3016163772277773
-0.8959919965737065 -0.3476196954160734 0.2763311228122867
-0.8620630182582001 -0.44274329093281 0.2466287308598638
-0.8230750085865968 -0.5257136933177251 0.2148782048007896
-0.7812810466623531 -0.596714453290725 0.1831168680382256
-0.7385364222922662 -0.6566482522814099 0.1528954731949537
-0.6962376025630921 -0.7067983283569471 0.125257030976399
-0.6553517387328268 -0.748567804465012 0.1007985151591623
-0.6164907156606538 -0.7833110847771686 0.07976805105698459
-0.5799958175456013 -0.8122440122862967 0.06216523252322965
-0.5460127239035419 -0.8364105346390172 0.04782805536824115
-0.5145477121246909 -0.8566844812185938 0.03650139156901657
-0.4855062117235777 -0.8737882470170254 0.02788938423010229
-0.4587287756652958 -0.8883114144148266 0.02169657569636784
-0.4340239842063288 -0.9007283374478426 0.0176534204082275
-0.4106817882817682 -0.9116472704053598 0.01548299506379574
-0.3814196030656959 -0.924282642664489 0.01485539855927476
0 0 0
0 0 0
-0.3176711421267378 0.9481371319483421 0.01100111270125364
-0.3329316366095519 0.9428617163262855 0.0129734047472551
-0.3509939345528226 0.9362319188742205 0.01652428480218302
-0.3707628653768038 0.9284666453723576 0.02201331616504947
-0.3922750982038871 0.9193637734279041 0.02984123719848123
-0.4157930625528529 0.9085605795627852 0.04042032159019411
-0.441678805855464 0.8955363138672506 0.05417142238438813
-0.4703218973439288 0.8795926872189574 0.07151235886012944
-0.5020922242784953 0.8598174805487295 0.09282940515756731
-0.5372928285267714 0.8350401984086807 0.1184241675305021
-0.5760918079822061 0.8037951419682889 0.1484304501238586
-0.6184217289392522 0.7643141156676468 0.1826978318617071
-0.6638446664281672 0.7145810112909994 0.2206450478873425
-0.7113951841391704 0.6524902908466274 0.2611001959679061
-0.7594363387810551 0.576151074979096 0.3021694659280751
-0.8055938432929077 0.4843516487541569 0.3412067408444499
-0.8468566020173353 0.3771292530043662 0.3749765621315828
-0.8799183746234781 0.2562821262685595 0.4000788994126561
-0.9017546984585773 0.125570071087894 0.413606843578369
-0.9102914598993034 -0.00962187532777673 0.4138561073000753
-0.904910151053382 -0.143171311503908 0.4007986952109445
-0.8865626734254618 -0.2693726829645586 0.3760917225374324
-0.8574529219165924 -0.3839117717372696 0.3426167512224819
-0.8204533989223097 -0.4843327983561996 0.3037728767241766
-0.7785085247403882 -0.5699595143716014 0.2628129161282453
-0.7342067162874625 -0.6414628949910683 0.2224091996929505
-0.689573761927858 -0.700324323968477 0.1844827041181833
-0.6460450032372134 -0.7483696857570676 0.150228716403011
-0.6045414310097862 -0.7874455397612461 0.1202463309326283
-0.565585013439349 -0.8192349271014566 0.09469808229252634
-0.5294128721044802 -0.8451781026623333 0.07345737287831261
-0.496071756428638 -0.8664591075416662 0.05622657229375434
-0.4654894915267397 -0.8840264156530085 0.0426242854001259
-0.4375313562259931 -0.8986247368216821 0.03224739820830913
-0.412060371857161 -0.9108212828120889 0.02471519211899267
-0.3890262585116549 -0.9210160265453567 0.0196989602523914
-0.3686115088718674 -0.9294293335097397 0.01693131828434369
-0.352130387303887 -0.9358118986427871 0.01613321715580328
0 0 0
0 0 0
-0.2756654469665571 0.9611782213004668 0.0120411065271686
-0.2862781355835857 0.95803929414402 0.01433666498226432
-0.3010899391924583 0.953414755776836 0.01857826644435184
-0.3181827001209557 0.9476977114209374 0.02507622601699081
-0.3371902629340229 0.9408129494569379 0.03425960765422723
-0.3582619818938568 0.9324568709016835 0.04661047347674609
-0.3817449998278857 0.9221415993994412 0.06265481436767394
-0.408069236506594 0.9091750463370086 0.08294717195313611
-0.4376897634376211 0.8926116970868615 0.1080371658533857
-0.4710355439303415 0.871188025575803 0.1384085996157067
-0.5084376070986749 0.843257233228891 0.1743801545329314
-0.5500190054661149 0.8067475538178379 0.2159571208249459
-0.5955367960023865 0.7591849781740663 0.2626291939637589
-0.6441805586054632 0.6978415070812891 0.3131271928614131
-0.6943602271413036 0.6200821165766037 0.3651876827963342
-0.7435605603688528 0.5239616383596889 0.4154297709497816
-0.7883863371425998 0.4090315610397175 0.4594999080307703
-0.8249277257288368 0.2771438701726512 0.4926312236851959
-0.8494794159147879 0.1328575284927196 0.5106207977157575
-0.8594397953147402 -0.01695345226397572 0.5109557893650782
-0.8540196224113051 -0.1643669192841174 0.4935929500929888
-0.8344062911593052 -0.3021086637211154 0.4609734228547395
-0.8033148122703525 -0.4249423386616538 0.41726409047486
-0.7641892194904946 -0.5302396234647114 0.3672339561131423
-0.7204307340516833 -0.6177277086987725 0.31526502397113
-0.6748953296642729 -0.6887737133509994 0.264777389129109
-0.6296992377729966 -0.7456025903359018 0.2180725733156285
-0.5862447946676466 -0.7906846188984901 0.1764507697983727
-0.5453541538953718 -0.8263559444833769 0.1404446504714535
-0.5074281530499219 -0.8546359885013763 0.1100636027514084
-0.4725871218168611 -0.8771754549878714 0.08499784385309851
-0.4407795753732008 -0.8952755394434272 0.06476939406927183
-0.411861851668442 -0.9099367754455957 0.04883523146165611
-0.3856623837196231 -0.9219115873695547 0.03665447936399781
-0.3620560010869744 -0.9317437473713933 0.0277315940980969
-0.3411000209516001 -0.9397777621093966 0.02164563585279578
-0.32338063188398 -0.9460964463719909 0.01806878757990749
-0.3110940218468058 -0.9502321180438046 0.01671620199577725
0 0 0
0 0 0
-0.2260875503877918 0.9740090524863602 0.01381250282425263
-0.2354490207863549 0.9717532584437405 0.01610476062284119
-0.2480000981379396 0.9685364962394651 0.0208088148569913
-0.2623997490036599 0.9645479557489292 0.02817113386744866
-0.278484022189148 0.9596647389252924 0.03860360409086426
-0.2964702631590505 0.9535902545015746 0.05264037976710553
-0.3167374621108114 0.945858911450554 0.07091050504103594
-0.3397534522927929 0.9357938717258798 0.09411387408568503
-0.3660377491603399 0.9224376553993515 0.122984300180871
-0.3961220049586995 0.9044625823519737 0.1582238740288537
-0.4304859384528386 0.8800712589531158 0.2003907082652699
-0.4694495689604598 0.84691038298181 0.2497196536126904
-0.5130051746180351 0.8020448916534213 0.3058589259573282
-0.5605831759663518 0.742073222152194 0.3675239254635521
-0.6107755055323706 0.6634963056016027 0.4321179634020106
-0.6610970162325406 0.5634475052559054 0.4954570051470946
-0.7079406608693186 0.440784998689226 0.5518411054084782
-0.7469218950872478 0.2972924439966964 0.5947477493708951
-0.7737123654633301 0.1384066537959426 0.6182335915446102
-0.7851795268731777 -0.02720296809444106 0.6186704365864472
-0.780331105341552 -0.1894047894583782 0.5959942883674797
-0.7605457806534798 -0.3390487710471073 0.5537292175618286
-0.7289819092462045 -0.4699039321959743 0.4977707007232541
-0.6895493602415832 -0.5793104433037142 0.4346505378688457
-0.6459706487734536 -0.6676358160107505 0.3701139528616323
-0.6012310501655816 -0.7371632465220127 0.3084016411984831
-0.5574227931472017 -0.7910083673081322 0.2521618379701709
-0.5158379979906886 -0.8323558949038887 0.2027185833802728
-0.4771598936442455 -0.8640451906836918 0.1604504420492339
-0.4416573948012327 -0.8884137582935554 0.1251388816160167
-0.4093424419278062 -0.9072913904424303 0.09623459910874962
-0.3800830106904679 -0.9220640721406671 0.07303938562063782
-0.3536803849458689 -0.9337584824403308 0.05482045033810063
-0.3299258032308881 -0.9431214370235291 0.04087688086346842
-0.3086574096406517 -0.9506817568504482 0.03057451006423389
-0.2898572012383209 -0.9567847699945959 0.02336036807661639
-0.273906827745184 -0.9615731218076692 0.01876648959243519
-0.2624642658427827 -0.9648016810542462 0.01643853370922129
0 0 0
-0.1361084924543083 0.9905850993468973 0.01468465980922041
-0.1658712890572752 0.9860322896638818 0.01506782023652571
-0.1803006821411178 0.9834532300551541 0.01764676495938195
-0.1919624457883339 0.9811357699190275 0.02286963909548356
-0.2037337107366748 0.9785343412468674 0.03103414426117542
-0.2165145278751355 0.9753496900033766 0.04259626074344971
-0.2308020021562924 0.9712607259742209 0.05816388897482675
-0.2470474206450135 0.9658203897682142 0.07847640830606492