# OOMMF: rectangular mesh v1.0
# Segment count: 1
# Begin: Segment
# Begin: Header
# Title: 
# Desc: time = 3.52e-09
# Desc: stepsize = 2.952199165071759e-14
# Desc: step = 22526
# meshunit: m
# valueunit: (none)
# valuemultiplier: 384000.0000000001
# xmin: 0
# ymin: 0
# zmin: 0
# xmax: 9.357999999999999e-08
# ymax: 9.357999999999999e-08
# zmax: 2.3395e-08
# ValueRangeMaxMag: 1
# ValueRangeMinMag: 0
# meshtype: rectangular
# xbase: 1.16975e-09
# ybase: 1.16975e-09
# zbase: 1.16975e-09
# xstepsize: 2.3395e-09
# ystepsize: 2.3395e-09
# zstepsize: 2.3395e-09
# xnodes: 40
# ynodes: 40
# znodes: 10
# End: Header
# Begin: Data Text
0 0 0
0 0 0
0 0 0
0 0 0
0 0 0
0 0 0
0 0 0
0 0 0
0 0 0
0 0 0
0 0 0
0 0 0
0 0 0
0 0 0
0 0 0
0 0 0
-0.9862853014593476 0.1645081324856115 0.01335584034570062
-0.9909794004620012 0.133241378020609 0.01437230124723791
-0.9957386741987164 0.09098685865826381 0.01502944631325309
-0.9988934107983469 0.04446891595014418 0.01531239295025907
-0.9998762338896811 -0.003253380813695676 0.01539260913127745
-0.9986334139201168 -0.04990935379098119 0.0155035804386843
-0.995597765349764 -0.0923679930491781 0.01591362594201912
-0.992171698869325 -0.1237476507420574 0.0167880582134661
0 0 0
0 0 0
0 0 0
0 0 0
0 0 0
0 0 0
0 0 0
0 0 0
0 0 0
0 0 0
0 0 0
0 0 0
0 0 0
0 0 0
0 0 0
0 0 0
0 0 0
0 0 0
0 0 0
0 0 0
0 0 0
0 0 0
0 0 0
0 0 0
0 0 0
0 0 0
0 0 0
0 0 0
-0.9269884358614373 0.3747789938326604 0.01526910478527718
-0.9383287728535056 0.3453516479921666 0.01647280377860081
-0.9524849411702671 0.3041142145794933 0.01694052344439029
-0.9667332526816685 0.255253045375829 0.01651366058406037
-0.9805885870781292 0.1954470187629055 0.01569986461119735
-0.9891214342719631 0.1462070387998468 0.01619537184364402
-0.9951290805080217 0.09714495604208882 0.01676217894067422
-0.9987500783671934 0.04696891609819812 0.01709391359767757
-0.9998448270126271 -0.003756786987539894 0.01721070735383292
-0.9983830712986521 -0.05416804442610462 0.01723559999887294
-0.994461187025001 -0.1036736662699729 0.0172834725378753
-0.9879915577510733 -0.1535420534978092 0.01724875706487541
-0.9766610628094908 -0.2141684601824162 0.01628002011447802
-0.9643783984718919 -0.2641145591863522 0.01475819049162735
-0.9517892969009685 -0.3064363845347222 0.0139239555460027
-0.941534306535997 -0.3366165945427595 0.01422736427500457
0 0 0
0 0 0
0 0 0
0 0 0
0 0 0
0 0 0
0 0 0
0 0 0
0 0 0
0 0 0
0 0 0
0 0 0
0 0 0
0 0 0
0 0 0
0 0 0
0 0 0
0 0 0
0 0 0
0 0 0
0 0 0
0 0 0
-0.8774822370348497 0.479402208011271 0.01408710908004549
-0.8926093409579736 0.4505764528907615 0.01514676648498552
-0.9145403914515976 0.4041766635669515 0.01603424558390983
-0.9320883092376177 0.3618141371435241 0.01737567108475559
-0.9484810706776211 0.3162996189733056 0.01839047589310099
-0.963637427747439 0.26654094981163 0.01894280649251124
-0.9770142927721165 0.212293750493093 0.01935032869427833
-0.9871115948935283 0.1587725774320084 0.02004913669840104
-0.9942528508813226 0.1050355311211204 0.02070762459737937
-0.9984896773679642 0.05072246169002805 0.02110914658913123
-0.999767294049164 -0.003964844848010888 0.02120466351874096
-0.9980572854609423 -0.05864720491021148 0.02102760791326539
-0.9933689052216138 -0.1131089332382511 0.02060551772018615
-0.9856402726808269 -0.1676869988011909 0.01985757544903387
-0.9745787913730758 -0.2232728051824211 0.01858585138664564
-0.961419648349112 -0.2745561582024663 0.01706387298860388
-0.946721155249036 -0.3216608349864895 0.01591733142596895
-0.9306505378483363 -0.3655846002288231 0.01541027183840057
-0.9103847220101772 -0.4134854160339906 0.0151482229205142
-0.8962558131114969 -0.4432736109261304 0.01529782077154114
0 0 0
0 0 0
0 0 0
0 0 0
0 0 0
0 0 0
0 0 0
0 0 0
0 0 0
0 0 0
0 0 0
0 0 0
0 0 0
0 0 0
0 0 0
0 0 0
0 0 0
0 0 0
0 0 0
-0.8399534454723873 0.5424684821501194 0.01435810965310302
-0.861273411813769 0.5079172933377456 0.0151040799497204
-0.8821149555257131 0.4707410221931231 0.01661611454107929
-0.903822817864019 0.4275128195772077 0.01836036506962264
-0.9238845976189692 0.3821325571457168 0.02029677441639391
-0.9423721223204838 0.3338347800239549 0.02211611899822869
-0.9590527927102294 0.2822356121689472 0.02368121657197567
-0.973458506160233 0.2274887116480751 0.02504841026863585
-0.9848961217684916 0.1711398438152097 0.02628275450346717
-0.9931505779451734 0.1136214298059013 0.02724151640474418
-0.9980866742038018 0.05523688539283098 0.02778267929650295
-0.9996058092249623 -0.003623997795482824 0.02784048856765747
-0.997667190650074 -0.06252057537076967 0.02741084376110915
-0.9922933535369091 -0.1210415357370414 0.02651126464151449
-0.9835572184876408 -0.1788369850524521 0.02515016378085315
-0.9716191808143905 -0.235393748862477 0.02336558302377867
-0.9570740292971012 -0.289053797356813 0.02138234502146947
-0.9403833560800897 -0.3395542653971897 0.01954595759028718
-0.9218282798190021 -0.38717768470213 0.01805721447613122
-0.90144448274348 -0.4325640186725436 0.0169178686955143
-0.881664533746798 -0.4715966678679888 0.01625523881246752
-0.8614795960045666 -0.507538756733363 0.0160410748193626
0 0 0
0 0 0
0 0 0
0 0 0
0 0 0
0 0 0
0 0 0
0 0 0
0 0 0
0 0 0
0 0 0
0 0 0
0 0 0
0 0 0
0 0 0
0 0 0
-0.766106568133091 0.6425334320139295 0.01521561723159122
-0.7866330735921498 0.6172152521110378 0.01592922133924463
-0.8178507582450327 0.5752030204962826 0.01617474729253375
-0.8437803804168914 0.5363989355174161 0.01763098407089878
-0.8680588463656485 0.4960624521271275 0.01989680466708589
-0.8916593710870323 0.4521425929787424 0.02259737965200022
-0.9139602516080954 0.4050012198133458 0.0255082423966882
-0.9346124616075921 0.3545327020400961 0.02839207269546516
-0.9532146857854359 0.300692780313575 0.03107434102702606
-0.9692716178517804 0.2437075559198114 0.03345381913299682
-0.9822367044292978 0.1842697052511958 0.03543631186381152
-0.991723985311083 0.1229771211640257 0.03688040982568744
-0.9974629150833523 0.06041300843144939 0.03765635996325133
-0.9992855413605998 -0.002805200510004802 0.03769002093062464
-0.9971323672487096 -0.06603247651238162 0.03696963930883776
-0.9910573936246349 -0.1286179972756089 0.03553383343738942
-0.9812309293472521 -0.1899107596410309 0.03346291476984185
-0.9679561943369985 -0.2492114717920691 0.03089414462102058
-0.9517136428772652 -0.3057028657572131 0.0280517348681308
-0.9329846164685885 -0.3590328347097959 0.02520176647000206
-0.9122011898680075 -0.4091216497063293 0.02254916727868177
-0.8897795543179192 -0.4559430845184943 0.0202051576971225
-0.8664122133602732 -0.4989966155039199 0.01822784287250751
-0.84133702329244 -0.5402589586483743 0.01650063143003101
-0.8112588466787479 -0.5845046901833564 0.01460653412434747
-0.7913246945785347 -0.6112405296446515 0.01379284850615976
0 0 0
0 0 0
0 0 0
0 0 0
0 0 0
0 0 0
0 0 0
0 0 0
0 0 0
0 0 0
0 0 0
0 0 0
0 0 0
-0.7189936685313315 0.6948735926448107 0.01409946299512036
-0.7441579929933412 0.6678291995421632 0.0152657034883871
-0.7696664578925841 0.6382227369958371 0.01689028053718515
-0.7978105721145566 0.6026139153610844 0.01883507460635937
-0.8251120552209443 0.5645571817957606 0.02157046155966405
-0.851645373757577 0.5235197505234179 0.02504452373702792
-0.8774444823554107 0.4787989710914896 0.02902973761120849
-0.9020944697067893 0.4302532120641038 0.03328274677587695
-0.9251182902067743 0.3778175334275495 0.03755077308946546
-0.9459820635567711 0.3215395884494736 0.04159601529733129
-0.9640989562440899 0.2616674141996653 0.04520361617300359
-0.9788732096406539 0.1987134359650758 0.04816855628682779
-0.9897953189239629 0.1333261401275308 0.05029281255710644
-0.9964769790821915 0.06625708707365432 0.05141622868067349
-0.9986743385750102 -0.001663609460276032 0.0514470395195759
-0.9963048543734093 -0.06956268004258756 0.05037529848319896
-0.9894544848517519 -0.1365638554235038 0.04827148017848514
-0.978374157141728 -0.2018261602751364 0.04527924100299854
-0.9634668126353535 -0.2645758719096409 0.0416090008715068
-0.9452600224001738 -0.3241531783137738 0.03752608480911929
-0.9243217268357049 -0.3801573921890639 0.03331219691749873
-0.9012129840633498 -0.4323908213235993 0.0292118981022307
-0.8764773763983462 -0.4807723486671142 0.02540388590310104
-0.8506286786445578 -0.5253064908622753 0.02199867553683303
-0.8237847029883951 -0.5665832014480858 0.01903257626173337
-0.7960285215370283 -0.6050321596109655 0.01657343464895232
-0.7707868101491073 -0.6369140119158216 0.0151074394076506
-0.746130986310461 -0.6656356430545786 0.01475608222718796
0 0 0
0 0 0
0 0 0
0 0 0
0 0 0
0 0 0
0 0 0
0 0 0
0 0 0
0 0 0
0 0 0
-0.6655388258351465 0.7462426777525815 0.01341406749017603
-0.6924345370159241 0.7213343344594663 0.01453237342834694
-0.7192294906720633 0.6945754431710265 0.01654972783389449
-0.7466830211818875 0.664898998979551 0.01933357273448169
-0.7752488569408396 0.6312429867135601 0.02283640814280999
-0.8039937764817713 0.5940171713333041 0.0271589311232759
-0.832579061675732 0.552966419091369 0.03225283578889383
-0.8607029601174638 0.50769198144349 0.03793766496528001
-0.887888027571207 0.4579544579739353 0.04396094764117386
-0.913547842172467 0.4036430955073173 0.05002590840054254
-0.9370148788535064 0.344801482918523 0.05581267046411284
-0.9575671514404465 0.2816821327108619 0.0609944800263831
-0.9744785334233143 0.2147876872129235 0.06525210585773676
-0.9870941989075611 0.144846745488086 0.06829687258249141
-0.9948952678704698 0.0727778445593124 0.0699055885480285
-0.9975501958331501 -0.0003632349000957569 0.06995337628485467
-0.9949481347678809 -0.07345201586859659 0.06843252506486491
-0.987209622012388 -0.1453717016199608 0.06545403405653628
-0.9746729460038995 -0.2150883279249997 0.06123446348672043
-0.9578579334996878 -0.2817163222223446 0.05607221259432379
-0.937410571541142 -0.3445719917042623 0.05031463898177678
-0.9140313431546665 -0.4032155792474613 0.04431591568511074
-0.8884203321210509 -0.4574222576380968 0.03839520401283895
-0.8612422901219088 -0.5071342667220429 0.03281087048319112
-0.833090288694189 -0.5524402151403165 0.02775571254990979
-0.8044130732684389 -0.5936103955689516 0.02337318607501507
-0.7757016524250847 -0.6307886722857302 0.01981406926902912
-0.7480140905298772 -0.663457516820585 0.01729288128170827
-0.7211274367785652 -0.6926206378883158 0.01587047246801486
-0.6945731174688541 -0.7192570570677762 0.01541007293293853
0 0 0
0 0 0
0 0 0
0 0 0
0 0 0
0 0 0
0 0 0
0 0 0
0 0 0
-0.6113237120500675 0.7912831006045153 0.01242472466615985
-0.6369089943667363 0.7708165002993786 0.01374248016079823
-0.6633597168285346 0.7481314771395347 0.0159115996110893
-0.6908844155684352 0.7227135147919758 0.01907615951100963
-0.7195165922106646 0.6940858081447406 0.02325434294091093
-0.7492139200223601 0.661717042276687 0.02844394496762088
-0.7795798212610762 0.6253439790684179 0.0346440489179022
-0.8102594225514188 0.5845809747833342 0.04177022968583417
-0.8408419659951085 0.5390004783725417 0.04963136644956651
-0.8707736071758525 0.4882583295404844 0.05794073420564403
-0.8993605214618953 0.4321466553289877 0.06633189823724459
-0.9257906260604291 0.3706475585006963 0.07437811557246554
-0.9491711461811744 0.3039946090741869 0.08161747919990867
-0.9685913336384719 0.2327215776229513 0.08758707501184486
-0.9832090362992633 0.1576711536239467 0.09186837461480904
-0.9923424875285674 0.0799634125507218 0.09413947152421079
-0.9955508208945132 0.0009235186091561773 0.09422160118379806
-0.992687602041649 -0.07802314319071092 0.0921070783351722
-0.9839163541095725 -0.1554715068148007 0.08796146135928505
-0.9696852221017511 -0.2301523893805606 0.08210022959709454
-0.9506669676108445 -0.3010239392231981 0.07494601195626896
-0.9276774830437825 -0.3673265862415092 0.06697511846731342
-0.9015894467933731 -0.4285967244074289 0.05866274165125129
-0.8732612567017983 -0.4846347652596905 0.05043730608666467
-0.8434866659727416 -0.5354539962812452 0.04265280990312503
-0.8129592195601555 -0.5812325027994023 0.03558208849526521
-0.7822554963093993 -0.6222622127723917 0.02942918703161119
-0.751906244870119 -0.6588200079437174 0.02435561656694132
-0.7224875696187839 -0.6910801194031764 0.02049342118909385
-0.6942567906037383 -0.7195047512949073 0.01790032303200091
-0.6674205339140767 -0.7444966639688455 0.01656949755146552
-0.6420335777433056 -0.7664990973304641 0.01649299371592988
0 0 0
0 0 0
0 0 0
0 0 0
0 0 0
0 0 0
0 0 0
0 0 0
-0.5846780328542001 0.8111576283389379 0.01322497203369076
-0.6051350047335496 0.795978239182566 0.01517461017449561
-0.6307991503818716 0.7757285531621282 0.01837508330591775
-0.6587267554685863 0.7520351107295123 0.02285287421482901
-0.6882599911408904 0.7248982068438936 0.02864915896232234
-0.7191688118957521 0.693913706412426 0.03577692062518829
-0.7511869684237734 0.6586074864965958 0.04420765998032841
-0.7839889491310204 0.6184363994678495 0.05383072964097732
-0.8171320451827696 0.5728391253176289 0.06442481851551556
-0.8500033892437624 0.5213173513919077 0.07564692599069948
-0.8818051144848188 0.4635135287050239 0.08703418165199175
-0.9115678748138915 0.3992946863026928 0.09801919759781348
-0.9381940610915195 0.3288403163410842 0.1079627254254766
-0.9605367081117828 0.2527156456139072 0.1162068622402531
-0.9775117376315482 0.171903520147722 0.1221473804605411
-0.9882264404641793 0.08777599673572657 0.1253151098812384
-0.992098142360357 0.001998602101163371 0.1254483220882973
-0.988934906122855 -0.08362138184092463 0.1225365902528451
-0.9789578390683417 -0.1673135719803739 0.1168234478082658
-0.9627602619657277 -0.2475123835544235 0.1087671732044672
-0.9412163713381619 -0.3229806626871621 0.09897087377195414
-0.9153639825846787 -0.3928704923185968 0.0880996915548431
-0.8862884781803427 -0.456720925505481 0.07680318776058827
-0.8550292742717094 -0.5144066182909254 0.06565646348142595
-0.8225167540082767 -0.5660629256897567 0.05512670437492228
-0.7895382630202806 -0.6120075135206544 0.04556462027915179
-0.7567345217319212 -0.6526621624089241 0.03721512298605349
-0.7246379765757358 -0.6884660231715365 0.03023801981929624
-0.6937250580780082 -0.7198153847154806 0.02472560861876184
-0.6644458405320575 -0.7470493850031267 0.02071089969309338
-0.6376867566412606 -0.7700807847815324 0.01819849759205666
-0.6166150514249311 -0.7870769754843022 0.01719630828729966
0 0 0
0 0 0
0 0 0
0 0 0
0 0 0
0 0 0
0 0 0
-0.5080100574410563 0.8612266274391727 0.01464505815906482
-0.5406034539911755 0.8411421108229127 0.01509486446394753
-0.5668303545919812 0.8236467573623897 0.01758886578347139
-0.5937580799504971 0.8043465386603201 0.02186294213185203
-0.6223012180989779 0.7822832217102342 0.02782364072483133
-0.6525812234024551 0.7568873488034149 0.03548644929958063
-0.6845679870346371 0.7275665891439796 0.04487236887818746
-0.7181194060258426 0.6936667944865341 0.05595441819791286
-0.7529698851873076 0.6544682656992507 0.0686122525036679
-0.7886863992192386 0.6092224998604027 0.08259363989092933
-0.8246201097877069 0.5572235148607173 0.09748655815022651
-0.8598774637915563 0.4979037376780773 0.112705879481067
-0.8933217942368473 0.4309518937094348 0.1275015186172743
-0.9236171252689686 0.3564426043004097 0.1409967224776079
-0.9493246425162198 0.2749522493111152 0.1522628769930779
-0.9690510815062939 0.1876238057160962 0.1604285166673621
-0.9816287602817575 0.09614486047977863 0.1648063797036479
-0.9862885581598052 0.002620770170011849 0.1650091258287485
-0.9827798451968177 -0.09064311302974318 0.161020501599006
-0.9714025443466588 -0.1814032085445766 0.153199127825747
-0.9529435526717693 -0.267719762017875 0.1422136225767363
-0.9285399952069752 -0.3481244127096664 0.1289297117680009
-0.8995105689136998 -0.4216875623254672 0.1142818279192123
-0.8671967829153024 -0.4879929356367358 0.09915964133653186
-0.8328421363157335 -0.5470490613304519 0.08432852705055446
-0.7975185586713514 -0.5991740235676246 0.07038918991261026
-0.7620962219681342 -0.6448812606891963 0.05777116991898681
-0.7272489050154705 -0.6847799087054719 0.04674940413656744
-0.6934860048855915 -0.719494991907055 0.03747155786042698
-0.6611889906151407 -0.749619933933007 0.02998455168257429
-0.630624327755564 -0.7757092223106693 0.02425200331970409
-0.6019120268240821 -0.7983080379058357 0.02015412065707073
-0.5744172111750248 -0.8183772171900687 0.01742406066752999
-0.541561671923715 -0.8405170312598078 0.01555878097375655
0 0 0
0 0 0
0 0 0
0 0 0
0 0 0
-0.4439837379690901 0.8959270394116925 0.01389893772895185
-0.4722030292110689 0.8813647207383927 0.01485019331943371
-0.4995027645251316 0.8661495300420254 0.01679225534967483
-0.5257185902273571 0.850411462950767 0.02050140412985409
-0.5527544394906633 0.8329333874225455 0.02616298416017598
-0.5814384741921804 0.8128855176353815 0.03385906005379332
-0.6120912674512241 0.789580031371511 0.04367670282103435
-0.644827698757157 0.7622967399732834 0.05568589715226636
-0.6796208047684299 0.7302262333136489 0.0698942766360109
-0.716287535063145 0.692461096075622 0.08619627332379999
-0.7544393508647788 0.6480265132627949 0.1043211578501487
-0.7934216826914813 0.5959523136185245 0.1237855941850486
-0.8322638892587181 0.5353887435243002 0.1438600429008105
-0.8696607114225442 0.4657653101084847 0.1635632076830864
-0.9040086349882575 0.3869790318381468 0.1817019999457279
-0.9335181210612334 0.299576687368505 0.1969713837988062
-0.9564071629256092 0.2048744640694322 0.2081148545319372
-0.9711521372859666 0.1049531413580866 0.2141223116911634
-0.9767390329517605 0.002491077865733603 0.2144170143424392
-0.972841301203674 -0.09954941318895522 0.2089730054482553
-0.959866129831845 -0.1983070947154166 0.1983212267690113
-0.938856433396551 -0.2913720239411645 0.1834419285069162
-0.9112872210810844 -0.3770122982738135 0.1655817853648495
-0.8788242266499178 -0.4542424973251643 0.1460538677234227
-0.8431088218213908 -0.5227557641410989 0.1260711133614727
-0.8056068410443801 -0.5827740231859412 0.1066398404076355
-0.7675290339721084 -0.6348734094965747 0.08851517341132134
-0.7298111851611853 -0.6798250774789546 0.07220455695008805
-0.6931348927569146 -0.7184705901323154 0.05800027204920938
-0.6579692782283522 -0.7516370669101871 0.04602334792593465
-0.6246116510922953 -0.7800929970434874 0.03626570395657491
-0.5932018745591057 -0.8045447790323282 0.02862227369348302
-0.5636664147502196 -0.8256847660917738 0.02290938512063132
-0.5354329084558672 -0.8443667882273069 0.01887663850350825
-0.5068641086125445 -0.8618721540297268 0.01628390335788313
-0.4782493310424673 -0.8780921075954007 0.01522589688980333
0 0 0
0 0 0
0 0 0
0 0 0
-0.4143005297192963 0.9100362659955527 0.01375011444249508
-0.433318760369432 0.9011074508158142 0.01549883854109382
-0.4566229194834928 0.8894630407530207 0.01873522182310573
-0.4813724109063153 0.876191709561186 0.02384722446086526
-0.5076467665122897 0.8610027933798986 0.03112796558768135
-0.5358662162447626 0.8433164345503986 0.0408018321245958
-0.5663580412144839 0.8224491978431784 0.05306492362007728
-0.5993329103187783 0.7976000565694211 0.06807504953563441
-0.6348773913553015 0.7678215429184326 0.08591144380258114
-0.672915399241132 0.732010283013977 0.1065167171196367
-0.7131412097120062 0.688931351248898 0.129627189574038
-0.7549359923351263 0.6372910142086523 0.1546990972368129
-0.7972867891383311 0.5758724363609535 0.180844443943377
-0.8387355722117131 0.5037425637580695 0.206799587439474
-0.8773952386868573 0.4205189019065525 0.2309576763585472
-0.9110705945949409 0.3266504735223722 0.2514952083281708
-0.937503663252911 0.2236277559147729 0.2666036537106991
-0.9547183764411664 0.1140167847841831 0.274796278128034
-0.9613829279625847 0.00124286447499119 0.275211411663804
-0.957072783457483 -0.1108626900465004 0.267808049021307
-0.9423377535524607 -0.218632311089411 0.2533761448467551
-0.9185522411634426 -0.3190708304796824 0.2333572055682493
-0.8876144279274782 -0.4101594476082024 0.2095467844485069
-0.8516049386533342 -0.4909101764757561 0.183783097954606
-0.8125015540496727 -0.5612221828339674 0.157705060673216
-0.7719980077420481 -0.6216368217859451 0.132614998556637
-0.7314272345368151 -0.6730805647392908 0.1094383568410256
-0.6917624515436617 -0.7166505523692875 0.08875075449311684
-0.6536631995161793 -0.7534627716256753 0.07083977253228518
-0.6175381787535397 -0.7845607779668547 0.05577619077890068
-0.583603543893915 -0.8108738885439777 0.04347919539309844
-0.5519218720953213 -0.8332117985455736 0.03376900749571684
-0.5224163958447998 -0.852281472217047 0.02640835981411258
-0.4949035366743411 -0.8686906110227217 0.02114501615508472
-0.4695260817876244 -0.8827395165384592 0.01778213886482084
-0.4493132770681628 -0.8932262048986553 0.01626425321411706
0 0 0
0 0 0
0 0 0
-0.3377166635781896 0.941160304390835 0.0128349748954151
-0.366583154846672 0.9302798053887491 0.01400979188036318
-0.3881124318729957 0.921462132082824 0.01662165343775926
-0.4099979263674043 0.9118436781754808 0.021042978540072
-0.4332057523029782 0.9008725534218813 0.02759381566129165
-0.4581674112194759 0.8881112820002541 0.03661931294150307
-0.4852963016711631 0.8730061359896097 0.04845395864923699
-0.5149658396130965 0.8548619230650755 0.06341353581893037
-0.5474837675072616 0.8328112720281519 0.08177352566023897
-0.5830609893259727 0.8057799521069965 0.1037234376053134
-0.6217558471540112 0.7724649320103758 0.1292965403404219
-0.6633884231534128 0.7313441739335304 0.1582766542466381
-0.7074292633890021 0.6807424833645291 0.1900881601878112
-0.7528784614630747 0.6189819722868197 0.2236858069903216
-0.7981676576542346 0.5446410018942407 0.2574773180891666
-0.8411369829973766 0.456920964567574 0.2893299292722895
-0.8791498391528139 0.3560681815532054 0.3167191348860598
-0.9093904741812887 0.2437274426706804 0.3370547420784054
-0.9293265372415584 0.1230537155898883 0.3481522228252125
-0.9372241404916459 -0.001559968633545327 0.3487240699715997
-0.9325333460929101 -0.1251376533866233 0.3387065486961385
-0.9159854962841617 -0.2429662799379855 0.3192772422365144
-0.8893680607600233 -0.351334628800934 0.2925550052644199
-0.8550871003919306 -0.4479334185756111 0.2611162638873465
-0.8156943108263045 -0.5318649442417375 0.2275136751325789
-0.7735201867552677 -0.6033713347776331 0.193931825781001
-0.7304692189226608 -0.6634484553624118 0.1620211939338398
-0.6879603077252355 -0.7134798643587574 0.1328800141074934
-0.6469626593244803 -0.7549591649715193 0.1071259850143845
-0.6080770590511571 -0.7893139330043658 0.08500473763781922
-0.5716263945639821 -0.8178147955192488 0.0664998140417792
-0.5377344759362316 -0.8415443734308047 0.05142665589497299
-0.5063842305773903 -0.8614025210509531 0.03950579387388533
-0.4774570503955692 -0.8781284068378526 0.03041818751958845
-0.4507692279118807 -0.8923218941660315 0.02384827791837617
-0.4261052179634285 -0.9044631958067152 0.01951078305558232
-0.4027230207209601 -0.9151618425271777 0.01711638290193071
-0.3732313910152051 -0.9275949921331106 0.01630519335760434
0 0 0
0 0 0
-0.3076370861168372 0.9514211523587581 0.01253850429173437
-0.3228242357128187 0.9463476229812774 0.01451514085772913
-0.3406816435295381 0.9400045730714471 0.0180947607549424
-0.3601261002318619 0.932603529419792 0.0236611251959306
-0.3812141806511979 0.9239453186700566 0.03163536910046984
-0.4042283226514697 0.9136724966395179 0.04245034806558127
-0.4295522693368705 0.9012695980209958 0.05655050477773595
-0.4576006552136688 0.8860411815402361 0.07438188598578582
-0.4887736465308258 0.8670722171062419 0.09636437505336144
-0.523411710648183 0.8431790801996778 0.122838185715873
-0.5617288817347857 0.8128661265991596 0.1539783220218543
-0.6037118204848644 0.7743102543245513 0.1896725279388113
-0.6489812029571829 0.7254070984902985 0.2293642074695478
-0.6966259484549424 0.6639243583077175 0.2718763218541418
-0.7450443817290314 0.5878101416866653 0.3152587930324974
-0.7918591629106234 0.4956789950163825 0.3567371581627504
-0.8340008788882346 0.3874254994830413 0.3928664103279474
-0.8680465965897868 0.264796201033652 0.4199739016498918
-0.8908182067015542 0.1316421839711433 0.4348715419619153
-0.9000957652256848 -0.006407994750366128 0.4356449827853727
-0.8951716171759772 -0.1428900463983634 0.4221968858753208
-0.8769910011294726 -0.2717565795204894 0.3962766021672846
-0.8478230822660437 -0.3884444511075085 0.3609805113585646
-0.8106415431640343 -0.4903859574736129 0.3199717193898869
-0.7684895926412176 -0.5769182907846195 0.2767472344221128
-0.7240281119884638 -0.6488071785529601 0.2341634858567136
-0.6793224288761359 -0.7076621611878209 0.194255767607577
-0.635819360541819 -0.7554357221693844 0.158273846325325
-0.5944323953014397 -0.7940809858309725 0.1268286850751957
-0.5556655553092029 -0.8253617645783332 0.1000687174648227
-0.5197336415076592 -0.8507748702755475 0.07783997682947048
-0.4866601846161067 -0.8715413420093272 0.05981265650342805
-0.4563504169629393 -0.8886322978858623 0.04557341430968912
-0.4286480221829882 -0.9028053272868797 0.03469025945480738
-0.403395302328754 -0.9146344750747702 0.02675830831334247
-0.3805217335133562 -0.9245236238583913 0.0214308014721238
-0.3601895282533998 -0.9326970669471061 0.01843054651544441
-0.3437030154171276 -0.9389156300984761 0.01748361375558812
0 0 0
0 0 0
-0.2654685236613761 0.9640266574470571 0.01338157974616665
-0.2759005742412627 0.9610585569526766 0.0156627980060856
-0.290389432090592 0.9567012025770769 0.01991950595967247
-0.3070324426073729 0.951330523017698 0.02648235566226123
-0.3254767441282705 0.9448721416329046 0.03579839378670353
-0.345884987078488 0.9370293186332463 0.04836973987347672
-0.3686189974977568 0.9273229595725985 0.06474691755801962
-0.3941266036723689 0.9150690371548114 0.08551536422333259
-0.4228863882313553 0.899326166536951 0.11126342090099
-0.4553592939332876 0.8788261522014289 0.1425219549241719
-0.4919197164323563 0.8519013723589983 0.1796636979413614
-0.5327474512766421 0.8164328610117719 0.2227499419043102
-0.5776689136820012 0.7698607629963229 0.2713172161219692
-0.6259495008342115 0.7093217087578936 0.3241140785127711
-0.676067096390308 0.6319939534287202 0.3788362759925638
-0.7255435367385685 0.5357134905048364 0.4319694808525402
-0.7709636833591326 0.4198324383704744 0.4789109756867346
-0.8083257816149287 0.2861044698763421 0.5145421878654762
-0.8337743325267771 0.1391721192151158 0.5342765984513078
-0.8445470269139123 -0.01379981954825276 0.535303544086256
-0.8397439769031164 -0.1644601203107234 0.51747746045825
-0.820528076292326 -0.3051062404815991 0.4833672082746188
-0.7896667884017451 -0.4302043451652134 0.4374363778839649
-0.7506927199745871 -0.5370137224573496 0.3848073570887859
-0.7070898275596051 -0.6253074690906383 0.3301735072067224
-0.6617678660362257 -0.6965900453237219 0.2771743138130847
-0.6168646963676788 -0.7532509487707758 0.228234428934674
-0.5737800456696126 -0.7979109265732646 0.1847014143052806
-0.5333195943054561 -0.8330246171535979 0.1471060758295351
-0.4958621054007694 -0.8606955841180364 0.1154291293704817
-0.4615052309141163 -0.8826294313452588 0.08932081930911891
-0.4301764843375303 -0.9001603234885469 0.06826114810048566
-0.4017134241520819 -0.9143067028758484 0.05166795846851391
-0.3759276146234031 -0.925829382370146 0.03896643817019277
-0.3526783858253653 -0.9352752602348899 0.0296334905836793
-0.3320086068154225 -0.9429903154058774 0.02322821670308149
-0.3144916329650635 -0.9490617116264302 0.01941340566922454
-0.3023144400210494 -0.9530399030466256 0.01791431147538526
0 0 0
0 0 0
-0.2157114397310622 0.9763432047961915 0.01491714508388396
-0.2248188575530235 0.9742489203351261 0.01719076828979647
-0.2369529986221419 0.9712742995955086 0.02189774849679579
-0.25079336681748 0.9675969587218213 0.02930550515917504
-0.2661862420010099 0.9630977981458692 0.0398436416001063
-0.2833563370764565 0.957489467020027 0.05406576351368148
-0.3026895869868308 0.9503181599921676 0.07262512457023436
-0.3246625029235644 0.9409195427858533 0.09625317241040146
-0.3498077543347843 0.9283467991750518 0.1257249198396659
-0.3786782209714727 0.9112766634324632 0.1617950791751006
-0.4117873637858603 0.8879025255537506 0.2050860115696878
-0.4495061817339809 0.8558368620305474 0.2559051741810669
-0.4918986632523328 0.8120699150463959 0.3139715881526644
-0.5384869148831971 0.7530679872891762 0.3780482099148266
-0.5879651297149137 0.6751321200560997 0.4455262357121975
-0.6379390074731248 0.5751401110532827 0.5121012355011672
-0.6848479293520688 0.4516928223080862 0.571801458495463
-0.7242785419458286 0.306416601903598 0.6176807102012137
-0.7517936168682621 0.1448064952336335 0.643301979302324
-0.7641091271630535 -0.02414342549185818 0.6446350415480334
-0.7601028944461901 -0.189790815600226 0.6214684514666247
-0.7410926431616813 -0.3424738009481524 0.5774888656205915
-0.7102450528769599 -0.475621433012423 0.5189761240394523
-0.6715124511526114 -0.586468949529926 0.452907495173436
-0.6286568442820637 -0.67546690626705 0.3854024269193653
-0.5846817214953232 -0.7450770981798225 0.3209476628941234
-0.5416761281295797 -0.7986100036274766 0.2623147619190884
-0.5009157640580946 -0.8394167898126071 0.2108621594757867
-0.4630626408579834 -0.87046001789288 0.1669501359435101
-0.4283651226967574 -0.8941593089091655 0.1303167370220524
-0.3968176545277537 -0.91239429814202 0.1003613161184254
-0.3682740884434044 -0.9265781452109657 0.0763356836517831
-0.342524218583153 -0.9377500757968118 0.05746264027238199
-0.3193493204036915 -0.9466608004601935 0.04300395830345385
-0.2985779884501457 -0.9538386539812442 0.03229561865504637
-0.2801821123337651 -0.9596274225345471 0.02476275121812222
-0.2645317315139004 -0.9641711095327297 0.01992572620212532
-0.2532686354688633 -0.9672387969522133 0.01743869141233012
0 0 0
-0.1256016521965866 0.9919602215589156 0.01546427529093347
-0.1553097914018591 0.9877377311437628 0.01590733069002693
-0.1694481998884775 0.9853659127333342 0.01847499872143192
-0.180628270989796 0.9832661841032733 0.02368626011475993
-0.1917536431213396 0.9809255716399831 0.03186790317020923
-0.2037349045356171 0.9780594708725232 0.04349436872081277
-0.2170720857566281 0.974359322734179 0.05919138270270493
-0.2322157387232699 0.9693918454547945 0.07972013958187187
-0.2496554344347316 0.9625199075817787 0.1059603301522267