# OOMMF: rectangular mesh v1.0
# Segment count: 1
# Begin: Segment
# Begin: Header
# Title: 
# Desc: time = 0
# Desc: stepsize = 1e-13
# Desc: step = 0
# meshunit: m
# valueunit: (none)
# valuemultiplier: 384000.0000000001
# xmin: 0
# ymin: 0
# zmin: 0
# xmax: 9.357999999999999e-08
# ymax: 9.357999999999999e-08
# zmax: 2.3395e-08
# ValueRangeMaxMag: 1
# ValueRangeMinMag: 0
# meshtype: rectangular
# xbase: 1.16975e-09
# ybase: 1.16975e-09
# zbase: 1.16975e-09
# xstepsize: 2.3395e-09
# ystepsize: 2.3395e-09
# zstepsize: 2.3395e-09
# xnodes: 40
# ynodes: 40
# znodes: 10
# End: Header
# Begin: Data Text
0 0 0
0 0 0
0 0 0
0 0 0
0 0 0
0 0 0
0 0 0
0 0 0
0 0 0
0 0 0
0 0 0
0 0 0
0 0 0
0 0 0
0 0 0
0 0 0
-0.9712475074969639 0.21540646557791 0.1013821175955958
-0.9790051623108736 0.1764549277131643 0.1020419063640096
-0.9870673174026031 0.1234682147387563 0.1022433903235436
-0.9926934956213166 0.06479097901437694 0.1017926951676268
-0.9948993167494375 0.004406575356089227 0.1007766422596676
-0.9935410412451313 -0.05460826085237185 0.0994692777103512
-0.9892610887040538 -0.1081226975521885 0.09834622844881943
-0.9841955883155555 -0.1474529612627893 0.0980646121443982
0 0 0
0 0 0
0 0 0
0 0 0
0 0 0
0 0 0
0 0 0
0 0 0
0 0 0
0 0 0
0 0 0
0 0 0
0 0 0
0 0 0
0 0 0
0 0 0
0 0 0
0 0 0
0 0 0
0 0 0
0 0 0
0 0 0
0 0 0
0 0 0
0 0 0
0 0 0
0 0 0
0 0 0
-0.8770088341667144 0.4700104177667909 0.0997281905191634
-0.8943893362071165 0.4355632058238821 0.1017467887032081
-0.9165472139463691 0.3862900758160233 0.1035431404449336
-0.9393336256873777 0.3267056877262142 0.1044783865703625
-0.9617211824136073 0.2532644839814679 0.1046397078100532
-0.9756311409269701 0.1923592196284289 0.1055547605628471
-0.9856953639463971 0.1309377500972643 0.1061129355641694
-0.9920730524657433 0.06757770189722422 0.1059448572493818
-0.9944655725196113 0.003268186724957562 0.1050121137239501
-0.9927878577033349 -0.06058915786228403 0.1034467183933909
-0.9872140798094462 -0.1229610898406393 0.1014343679981786
-0.977695303445649 -0.185291316882367 0.09888893521682764
-0.9606862614998364 -0.2610832556226292 0.09443220107016559
-0.9421405812979181 -0.3231424858245309 0.0891631029449019
-0.9232302532869964 -0.3747664188852652 0.08482942114350422
-0.9079491470595403 -0.410846593707252 0.08266451955343807
0 0 0
0 0 0
0 0 0
0 0 0
0 0 0
0 0 0
0 0 0
0 0 0
0 0 0
0 0 0
0 0 0
0 0 0
0 0 0
0 0 0
0 0 0
0 0 0
0 0 0
0 0 0
0 0 0
0 0 0
0 0 0
0 0 0
-0.8033830756963805 0.5879622700091227 0.09421254019684883
-0.8256426877943828 0.5558860911504189 0.0964614210820829
-0.8581532393396066 0.5036280572611611 0.09965840531680219
-0.8844416351453336 0.4551072252664176 0.103152351072334
-0.9096602265779881 0.4014775482045778 0.1064614975929023
-0.933543525971987 0.3413990130142187 0.1092849441995863
-0.954973892598832 0.2748779961424592 0.1116555045277219
-0.971403545294955 0.2084221145383959 0.1137337872390425
-0.9833206881020145 0.1408507527290133 0.1150716724752472
-0.9907185900500276 0.07190524587998567 0.1153529841149489
-0.9934250638970532 0.002174427119426297 0.1144635937223597
-0.9913655948387049 -0.06747970832366944 0.1124310737058612
-0.9845963060765544 -0.1364445501753846 0.1093297708213114
-0.9731069199065964 -0.2049626706312898 0.105134323974551
-0.9564928377883152 -0.274200183167619 0.09967803574759804
-0.9367351505927114 -0.3372839503482992 0.0936311619146952
-0.9148921543588104 -0.3940018099824008 0.08794839181750883
-0.8913754837312532 -0.4455888493756042 0.08306819075313344
-0.8617700228387682 -0.5012434148385683 0.07815028354036353
-0.841241429733653 -0.5353904821620666 0.07529866207276652
0 0 0
0 0 0
0 0 0
0 0 0
0 0 0
0 0 0
0 0 0
0 0 0
0 0 0
0 0 0
0 0 0
0 0 0
0 0 0
0 0 0
0 0 0
0 0 0
0 0 0
0 0 0
0 0 0
-0.7496221201071994 0.6555862999966325 0.09095757419100502
-0.779740279800111 0.619034464002584 0.09381592846781178
-0.8093307511637016 0.5791397389153314 0.09788206183913127
-0.840759746485544 0.5315448034407646 0.1028745382720249
-0.8703923315806485 0.4802834014868803 0.1083745513568286
-0.8984410537182098 0.4240578953750569 0.1139235461341927
-0.9244265003832925 0.3622705370572711 0.1191457232523858
-0.9473814102398902 0.2952072677928512 0.1237785626599218
-0.9659998942212813 0.2248899541796023 0.1275488646502554
-0.9797859344508258 0.1520047061237881 0.1300541885851519
-0.9883749975977592 0.07722073037063042 0.1309649683108252
-0.9914983583402135 0.001452805574515959 0.1301110862479576
-0.9890571816016726 -0.07426255612865855 0.1274792699986685
-0.9811410257331367 -0.1489678963882893 0.1231700185474358
-0.9679794315449096 -0.2219119568740323 0.1173494929785834
-0.9499560121672248 -0.2922693578757712 0.1102823530499211
-0.9281643981540825 -0.3577651248137806 0.1025425056561872
-0.9035308772834322 -0.4179070182086059 0.09479281580068727
-0.8766338749631462 -0.4731428017354504 0.08745820963767015
-0.8474842405418284 -0.5246529027013234 0.08068329269629222
-0.8196232596148715 -0.5679507689413078 0.07516406293748111
-0.7911695134405226 -0.6074751858517834 0.07088511533902701
0 0 0
0 0 0
0 0 0
0 0 0
0 0 0
0 0 0
0 0 0
0 0 0
0 0 0
0 0 0
0 0 0
0 0 0
0 0 0
0 0 0
0 0 0
0 0 0
-0.6461797827962952 0.758447249021699 0.08490853170765153
-0.6741135685506542 0.733453589600741 0.08727387121979602
-0.7173242107322813 0.6907859898638149 0.09088835406793491
-0.7528513213609067 0.6511727059135326 0.09585924576369233
-0.7864679756111927 0.6091077449284094 0.1022539896838238
-0.8198920801607726 0.5618914827053827 0.1097949841877451
-0.852335010907515 0.5094984885251265 0.118052189187228
-0.8833008359491101 0.4514098404133716 0.1265258439591578
-0.9120456486987605 0.3873364500635611 0.134696730256584
-0.9375556027779315 0.3175103281197569 0.1420446522646787
-0.9586940086878174 0.2428847073507707 0.1480297829533397
-0.9745856304172567 0.1644497573338615 0.15211550314492
-0.9845680458523584 0.08335732256950208 0.1538743638833703
-0.9882151090920801 0.0009561244248601178 0.1530685597639557
-0.9853865235060812 -0.0813017580393169 0.1496777319186623
-0.9762446909264734 -0.1619980106913797 0.1438851902382925
-0.9612313600764132 -0.2398455317587433 0.1360455559767171
-0.9410501647863226 -0.3136566736277542 0.1266652219214378
-0.9167078952480699 -0.3822289033696095 0.116394588442585
-0.889199766417038 -0.4450952961441099 0.1058959524923946
-0.8593564426324373 -0.5023437891323753 0.09569337503845034
-0.8278365161313176 -0.5543155868856492 0.08614483556882857
-0.79559154539292 -0.6008505158759819 0.07754192718053263
-0.7612454647315502 -0.6447075109218785 0.06969625374840061
-0.7194935979249329 -0.6917535286357362 0.06169293448233745
-0.6922396625324 -0.7194050247111018 0.05710218942778857
0 0 0
0 0 0
0 0 0
0 0 0
0 0 0
0 0 0
0 0 0
0 0 0
0 0 0
0 0 0
0 0 0
0 0 0
0 0 0
-0.5840959208428542 0.807785333278829 0.07946578253782412
-0.6166540339201285 0.7828758433304388 0.08272373528611127
-0.6496405003899622 0.7552403288514528 0.08705897960249839
-0.6866794769077401 0.7209951576990103 0.09293696018426052
-0.7228544767347039 0.6836419500171484 0.1005738019632714
-0.7586264519292367 0.6421819195086105 0.1099467538833839
-0.7943625414637546 0.5953173032298008 0.1207702827455561
-0.8296265106337193 0.5423493090908247 0.1325785796515545
-0.8637308504772694 0.4827110547709108 0.144772426710915
-0.8957257369863372 0.4160971966252517 0.1566477802616087
-0.9244277544551242 0.342640682307554 0.1674236829748708
-0.9485455120234108 0.2630313049882713 0.1762837037743759
-0.9668950317402618 0.1783896440676737 0.1824585774509002
-0.9785225927287092 0.09023030372609112 0.1853430004315823
-0.9828139678825228 0.0003764636022279662 0.1845983824689882
-0.9795755775500329 -0.08920133528516147 0.1802076847719408
-0.9690574796621454 -0.1765809477722876 0.1724725195348248
-0.9519119072165579 -0.2600616067095489 0.1619619758306944
-0.9291085350688522 -0.3382706048668169 0.1494333562001764
-0.9018237923647725 -0.410231100176627 0.1357361115278222
-0.8712413049319488 -0.475532222788123 0.1216868672892077
-0.8384136164257685 -0.5342345920068858 0.1079629959527786
-0.804206064807939 -0.5866993800989472 0.09506020575214287
-0.7692769927835081 -0.6334623476617387 0.0832968334862761
-0.733534762908195 -0.6757450765453061 0.07276910834959914
-0.6967612145009122 -0.7144809742608238 0.06356687334231013
-0.6638150028030672 -0.7457451328414324 0.05669073025528634
-0.6314860974683475 -0.7736394754507193 0.05203143980837078
0 0 0
0 0 0
0 0 0
0 0 0
0 0 0
0 0 0
0 0 0
0 0 0
0 0 0
0 0 0
0 0 0
-0.5152159722086483 0.8538395587194879 0.07423280909952845
-0.5489603207891135 0.8322603993318173 0.07736403494619948
-0.5818641057606221 0.8091374311839279 0.08204133034309895
-0.615644478779748 0.7830301877724398 0.0885753960480526
-0.6513469895940814 0.7525268229128255 0.09721357900754468
-0.687925033958669 0.7176898537263011 0.1080759987753242
-0.7252384210852488 0.6777637208687816 0.1211014915510087
-0.7631808875135979 0.631711413168364 0.1359986154590731
-0.8012716399041838 0.578604773593444 0.1522506980612529
-0.838695288974151 0.517674041345252 0.1691265773609789
-0.874310375957579 0.4484400287556695 0.1856957379762137
-0.9066931343714569 0.3708907104126968 0.2008672223465729
-0.9342605087651642 0.2856342102665708 0.2134722457071373
-0.9554704456728845 0.1939431860064759 0.2224011421897744
-0.9690326478200457 0.09772003457220421 0.2267741658612767
-0.9741042583467969 -0.0006526418753057226 0.226098358970645
-0.9704251596238931 -0.09857075158110198 0.2203606509830594
-0.9583521149830769 -0.193518637595279 0.2100279995875068
-0.9387830749123427 -0.2833496312429286 0.1959574564353767
-0.9129994170297134 -0.366473287473346 0.1792467407566487
-0.8824687578005653 -0.4419354161413956 0.1610651404427976
-0.8486390606956162 -0.5094174976059583 0.1424975711882307
-0.8127901518781797 -0.5691114267108147 0.1244361402367735
-0.7759553964930873 -0.6215539502465619 0.1075356200807413
-0.7388795771362651 -0.6674969711629875 0.09222127725840339
-0.7019528264806789 -0.7078585843993339 0.07873026030667152
-0.6655736938053994 -0.7432966442359932 0.06724400926288766
-0.6309866073715122 -0.7736184776359184 0.05805473605204205
-0.5974441171024657 -0.8002796982035073 0.05111684245880152
-0.5635593723700417 -0.8247776213354167 0.04628940654378735
0 0 0
0 0 0
0 0 0
0 0 0
0 0 0
0 0 0
0 0 0
0 0 0
0 0 0
-0.4472236317387273 0.8917510344748921 0.06907326347714213
-0.4785120360200401 0.8751294656777832 0.07193503796115527
-0.5096428551815073 0.8569925474732517 0.07634090474802459
-0.5415357083269499 0.8365795467570659 0.08290801260777166
-0.5748342967763788 0.8130852690218572 0.09196671435503066
-0.609977284852939 0.7855987835592434 0.1037413284745906
-0.646826007182989 0.7534003731706563 0.1183384727720742
-0.6852914385584093 0.7155155999269739 0.1356947696106516
-0.7251708693511985 0.670777683469776 0.1555136958706453
-0.7659472430850929 0.6179951466751591 0.1772196927440446
-0.8067167930928177 0.5560911589021963 0.1999265833571196
-0.8461608162054204 0.4842902626999417 0.2224293473725934
-0.8825777817799464 0.4023534832396628 0.243245007417006
-0.9140106422697117 0.3108120020620816 0.2607305988791286
-0.9384791746768362 0.2111167123764531 0.2732884418581256
-0.954278877658286 0.1056366110863989 0.2796296301421262
-0.9602801348908682 -0.00254490907231038 0.2790261385099773
-0.9561389357755478 -0.1100190366004114 0.271466659241093
-0.9423473813550318 -0.2135273698365298 0.2576576705320596
-0.9201097197231899 -0.3103856958116075 0.2388698882372093
-0.8910942498146855 -0.3987449143106924 0.2166876352230575
-0.8571443328511599 -0.4776546256609568 0.1927424479605633
-0.8200230767656964 -0.5469649353970713 0.168497813095001
-0.7812430987581371 -0.6071237229507119 0.1451206590160412
-0.7419863077933155 -0.6589527145469812 0.123440832135916
-0.7030891541827905 -0.7034589219308106 0.1039768552441801
-0.6650811275300328 -0.7416856114929823 0.08700314653884995
-0.6283587256250711 -0.774524217660581 0.07264673556396775
-0.5933441242707909 -0.8026370517227444 0.06096321345818491
-0.5598970959446874 -0.8269359025738686 0.05188694428318565
-0.5276700193391098 -0.8482382163525728 0.04534621273787662
-0.4960067685143167 -0.8673314292787195 0.04139417076495434
0 0 0
0 0 0
0 0 0
0 0 0
0 0 0
0 0 0
0 0 0
0 0 0
-0.4149618012820496 0.9073474970581328 0.06728464207453128
-0.4374690711704356 0.8964590018948356 0.0705837778175047
-0.4653211010272916 0.8818326195214784 0.07646897466708909
-0.4954576533595718 0.8644448130474023 0.08518731667840967
-0.5275912179536644 0.8439368273489234 0.097047092601489
-0.5619339404140832 0.8195224665697474 0.1123083852530095
-0.5986161195074184 0.7902305870382316 0.1311272693801382
-0.6376810822732765 0.7548540028673261 0.1534870407101433
-0.6789802317835354 0.7119721870550005 0.1791129523716677
-0.7220284669840996 0.6600509863848419 0.2073827095902348
-0.7658896495445415 0.5976017182507907 0.2372450864912512
-0.8091026179506577 0.5234238286556453 0.2671711983370537
-0.8496822515092132 0.4369307666136232 0.2951805831294886
-0.8852450101064455 0.338506673096596 0.3189898185690456
-0.9132889028196973 0.2297831510056623 0.3363080187867992
-0.9316004151531773 0.1136981323145506 0.3452439734370611
-0.9386895779081547 -0.005767227176963495 0.3447152671659598
-0.9341059742545571 -0.1241596917036299 0.3347094259473485
-0.9185127396870783 -0.2372708077010103 0.3162861218034188
-0.8934947438640182 -0.3417606943036545 0.291319018459928
-0.8611892775909367 -0.4355041968260349 0.262086097894013
-0.8238803343195105 -0.5176155439018235 0.2308578424762529
-0.7836729560500332 -0.5882335859404624 0.1995944546509916
-0.7423008132821386 -0.6481976943970772 0.1697917889033161
-0.701058695939528 -0.6987293744259275 0.1424568922934926
-0.6608225753139548 -0.7411814039332189 0.1181678908122447
-0.6221264609263231 -0.7768627928170887 0.09717441922502346
-0.5852853861213329 -0.8069198091362219 0.07950747396543921
-0.5504968657380612 -0.8322973594603119 0.06507154714591132
-0.517858612248465 -0.8537783584633791 0.0537119385208845
-0.4879582703190737 -0.8716873113972856 0.04536471730529138
-0.4641702499895282 -0.8848243039262794 0.04039715591515696
0 0 0
0 0 0
0 0 0
0 0 0
0 0 0
0 0 0
0 0 0
-0.3232454617616621 0.9442389750689019 0.06265085323695967
-0.3604177604443717 0.9305082798221889 0.0652179357126091
-0.3878424270999081 0.9190740038471881 0.06986577984643669
-0.4149232930258532 0.9065484290329273 0.07751520317017248
-0.4433561391685646 0.8919575463194204 0.08858368600020385
-0.4738003297548504 0.8745335885182348 0.1034613458138502
-0.5067300651529643 0.8533566239796655 0.12250352394972
-0.5424951629842769 0.8272790692856905 0.1459737636031347
-0.5813077776157675 0.794870719028231 0.1739592127912742
-0.6231537801206074 0.754412008122551 0.206256850363562
-0.6676547530312527 0.7039595070673489 0.2422357181843166
-0.7139173178820485 0.6415093361277986 0.28069170790918
-0.7604038805897861 0.5652934040047919 0.3197331790300608
-0.8048816747278987 0.4742197931118701 0.3567647369179689
-0.8445282368791457 0.3684019113384528 0.3886542021334334
-0.8762573266661754 0.2496223936816989 0.412142885461421
-0.8972544688676453 0.1215008913335818 0.4244666671273308
-0.9055895324301 -0.01083341874662338 0.4240167871574103
-0.9006778558930424 -0.1415710517277645 0.4107761400283684
-0.8833878243204576 -0.2652919520006934 0.3863238693713207
-0.855755547981479 -0.3778722070449743 0.3534049196628111
-0.8204541059586756 -0.4769289530801621 0.3152678761456839
-0.7802420307458782 -0.5617625460838228 0.2750367525894827
-0.7375582862336076 -0.6329654658241841 0.2352923574664436
-0.6943175664222131 -0.691923859396837 0.1979002015029824
-0.6518723210926932 -0.7403765940152099 0.1640273636551574
-0.6110765866605534 -0.7801017844986757 0.1342632155777151
-0.5723959744805264 -0.8127305997762719 0.1087741724206122
-0.5360259407249138 -0.8396599017157187 0.08744964448595628
-0.501977206729414 -0.8620420510721096 0.07001704155078738
-0.4700968910579327 -0.8808288724331721 0.05611960892390748
-0.4400197775242615 -0.8968418043051911 0.04535827860609663
-0.4103360475690116 -0.9111750362739229 0.03720727531890186
-0.3719208624719589 -0.9277621865006094 0.03053190720741562
0 0 0
0 0 0
0 0 0
0 0 0
0 0 0
-0.2495501391604386 0.9666414627310851 0.05769757858102281
-0.2809545783497457 0.9578510635267868 0.05988209252288748
-0.3093771839369526 0.9488210435572971 0.06343804349191351
-0.3346419463627312 0.939771133082225 0.06960592762052127
-0.3595000435931017 0.9297803713891046 0.07917183612937245
-0.3854688182747348 0.9180524508254155 0.09270106618225579
-0.4134345452454223 0.9037771553830497 0.1107191501296556
-0.4440502556682149 0.8859662003945922 0.1337283148752036
-0.477840885930737 0.8633502943649528 0.1621553482092937
-0.5151943050936015 0.8343015526378659 0.1962542923483888
-0.5562758345453634 0.7967931431260152 0.2359616133362042
-0.6008814821975466 0.7484300266595748 0.2807025820088356
-0.6482498197122707 0.6866029787551255 0.3291633649232499
-0.6968690029672715 0.6088301200881353 0.3790771393487966
-0.7443519007726891 0.5133282403449911 0.4271233609630816
-0.7874924311172921 0.3997690036944885 0.4690846561315906
-0.8226175122362952 0.2700161609380854 0.5003915480845238
-0.8462586940269695 0.1284802590430573 0.5170483979474225
-0.8559810043378605 -0.0182685962745114 0.5166844090960223
-0.8510335864700983 -0.1626892170866267 0.4992735255784965
-0.8325043839643819 -0.2978479728389344 0.4671434851903875
-0.8029149875959131 -0.4187179967530615 0.4242673236167942
-0.7654892262894463 -0.5227271585123148 0.3752100241044015
-0.7234349477117125 -0.6095426566299114 0.3241907250028929
-0.6794646673510643 -0.6804142062896158 0.2745255428931507
-0.6355983204633631 -0.7374409613383476 0.2284635716356657
-0.5931737647189537 -0.7829868982678283 0.1872869509337697
-0.5529638073624836 -0.8193107496373934 0.1515286219689138
-0.5153226214197671 -0.8483818601508908 0.1212056732169469
-0.4803158670101964 -0.8718241857133271 0.09601696258233297
-0.4478059643944278 -0.8909384641773763 0.07548821962421498
-0.4174704482111667 -0.9067687863521895 0.05906600517848138
-0.3887104105660296 -0.9202025271639057 0.04616844938645398
-0.3602632288670261 -0.9321479498946093 0.03620228492210346
-0.3295725252610833 -0.9436958707798822 0.02863658614486017
-0.2968558166367746 -0.9546283535879295 0.02369241766709182
0 0 0
0 0 0
0 0 0
0 0 0
-0.2169720938106508 0.9746266944886232 0.05500833480120655
-0.2354272141822526 0.9702021258108249 0.05728753699138626
-0.2568271451373632 0.9644724049304139 0.06190959253891878
-0.2780522375640936 0.9580408272568276 0.06960406952652905
-0.2995155453324174 0.9506384261161152 0.08109883412047093
-0.3221083350775314 0.9417125115255077 0.0970760841294135
-0.3466428004215301 0.930517677497058 0.118218529771774
-0.3738361207708643 0.9160568499421291 0.1452115783300177
-0.4043306839964145 0.8969870366784043 0.1786923445754908
-0.4386692049731956 0.8715192465635121 0.2191427194262956
-0.4772085705247884 0.8373382302838187 0.2667145821338796
-0.5199659875718062 0.7915871955628773 0.3209752071256826
-0.5664006219133544 0.7309928536263571 0.3805782225027595
-0.6151586693890928 0.6522339984711203 0.4429115292175346
-0.6638603517130169 0.5526474744005638 0.5038553388246938
-0.7090738641674498 0.4312615978102654 0.5578778445222371
-0.7466527151254062 0.2899086494712788 0.5987175443876667
-0.7725204266346313 0.1338747378746643 0.6207171215547679
-0.7837279039117695 -0.0285250297788897 0.6204489465751207
-0.7793259172896175 -0.1876149259778596 0.5978726906215218
-0.7605832222879896 -0.3346428797165729 0.556351781725391
-0.7304495428666333 -0.4636000903151232 0.5015161229569151
-0.6926073848004501 -0.5718554605895131 0.4396320537834297
-0.6505917284153538 -0.6596722909073508 0.3762484173077272
-0.6072598615003874 -0.7291765718066334 0.3154948299716736
-0.5646265733142151 -0.7833322503495279 0.2599758032390536
-0.5239368227652188 -0.8252056746318452 0.2110113748263079
-0.4858372190242752 -0.8575567874158986 0.1689927601043352
-0.450555055651036 -0.8826778087409669 0.1337162210935388
-0.4180412163851359 -0.9023810962614938 0.104641762758184
-0.3880614868614675 -0.9180608394038954 0.0810714349686833
-0.3602345989665257 -0.9307815869296231 0.06226291946414355
-0.3340278931801576 -0.9413654364190617 0.04750243881291085
-0.3087873603188683 -0.9504429829744712 0.03617322520724797
-0.2843062317095897 -0.9583274328833037 0.02790157691582446
-0.263936719220094 -0.9642666930759849 0.02295980992162126
0 0 0
0 0 0
0 0 0
-0.1332407801006538 0.9898407024457289 0.04962134923512896
-0.163592043309354 0.9851740031359604 0.05167036782273425
-0.1831441246942511 0.9815564442718744 0.05481948830781495
-0.2008127523875996 0.9777573324337507 0.06053790011680177
-0.217967624941492 0.9734672294989802 0.06965391280426571
-0.2353568357213284 0.9683631985122139 0.08294501580226266
-0.2537348816406426 0.9619646047128065 0.1012062701542874
-0.2738428722721765 0.9535802813214352 0.1252786030439997
-0.2964005220961662 0.9422296231338849 0.1560450825566018
-0.3221059221472552 0.9265332218430791 0.1943809757634455
-0.35160795696797 0.9045834073903917 0.2410408755186521
-0.3854280800220969 0.8738177679769235 0.2964586033467521
-0.4238129021190733 0.8309458523687564 0.3604325379714893
-0.4665060665352803 0.7720237210527453 0.431684449589805
-0.5124520777896663 0.6928227975918206 0.5073356276727431
-0.5595022912393505 0.5896565690887023 0.5824622877306793
-0.6042842822372116 0.4607213790911858 0.65005870280258
-0.642468200735985 0.3076791843480505 0.7018319817178352
-0.6695931349740893 0.1367254100797964 0.7300350647976313
-0.6823016726398229 -0.04183085013245667 0.7298730077829263
-0.6794219621646237 -0.2158345611273793 0.7012854194629484
-0.6622653463610056 -0.3744829038101254 0.6489739330383563
-0.6339877290379763 -0.5107855951799439 0.5806527664499147
-0.5984679494159727 -0.622238797249078 0.5046335231827755
-0.5593164714266509 -0.7099405845843855 0.4279596372916735
-0.5193357088274635 -0.7770787847192426 0.3555825978249502
-0.4804056156394336 -0.8275789347735075 0.2903851772753612
-0.4436142091679003 -0.8652316231351567 0.2336250666158063
-0.409467515641149 -0.8932746373775531 0.1854636779875398
-0.3780845650708007 -0.9142795035425962 0.1454133799109519
-0.3493419328589472 -0.9301980532174337 0.1126578702837517
-0.3229639357915419 -0.9424721171601698 0.08625893897830615
-0.2985682031805271 -0.9521530221638563 0.06528131764743972
-0.2756852210606616 -0.9600049847051328 0.0488680696368407
-0.2537844666699132 -0.9665796631733986 0.0362932392694056
-0.2323100823447894 -0.9722669684281828 0.02699940266797267
-0.2100602164158513 -0.977472646642531 0.02054094800565364
-0.178108531730261 -0.9838788720791429 0.01611570666038427
0 0 0
0 0 0
-0.1023309090717977 0.9936394852911727 0.0469995565812298
-0.1157458298316115 0.9920787627056967 0.04881220610590215
-0.1294040328629318 0.9901964531647615 0.05258878605496622
-0.1423764949447557 0.9880394296935392 0.05922008998736274
-0.1549658512942934 0.9854698228869816 0.06953282039249881
-0.1676677060912502 0.9822278996406927 0.0843557555921991
-0.1810699084928565 0.9778939841895133 0.1045803228353594
-0.1958050545137345 0.9718281156553332 0.1311887733332275
-0.2125330259047319 0.9630792504352808 0.1652515363946614
-0.2319342309097713 0.9502590089788304 0.2078805627923481
-0.2546878850760349 0.9313829937713145 0.2601149747882255
-0.2814116645619371 0.903698020784804 0.3227032108270803
-0.3125390086547034 0.8635460881064294 0.3957366823851657
-0.348112340461024 0.8063737710960838 0.4780995081643865
-0.3874877977853075 0.7270746458679772 0.566758913386854
-0.4289999784055368 0.6209069226382359 0.6560743951321101
-0.4697359704654073 0.4851355241864221 0.737557890082729
-0.5056765844062479 0.3211346036630857 0.8007270185983379
-0.5324389864600547 0.1359678991705245 0.8354767836945221
-0.5465364154051237 -0.05797413026414169 0.835426206709027
-0.5465709899566448 -0.2459175808779218 0.8004902849834991
-0.5336200860902078 -0.4149650115851473 0.7369217345697013
-0.5106024599937843 -0.557259571348218 0.6547876739746217
-0.4811249650186 -0.6706247657562889 0.5646071125926178
-0.4484911653272207 -0.7571636713901021 0.4749303626327678
-0.4152001702488828 -0.8212059491887155 0.3914455359847124
-0.3828760065097259 -0.867634192969294 0.3172016248850023
-0.3524220585871797 -0.9009094942025311 0.2532997747273251
-0.3242321817157017 -0.9246779339817929 0.1996101469040052
-0.2983732399664074 -0.941724992105283 0.1553301288103916
-0.2747140357606564 -0.9540890412128629 0.1193578652356528
-0.2530046748299773 -0.9632211967292107 0.09051828923330416
-0.2329212135123986 -0.9701369413456488 0.06769064434927652
-0.2140956419555096 -0.9755383698693977 0.04987930440790222
-0.1961563705689163 -0.9799020323872857 0.03625858806540072
-0.1788001993721891 -0.9835361997872683 0.02621130314355725
-0.1619189307479277 -0.9866138595111562 0.01937400541828357
-0.1466565062702363 -0.9890625994811618 0.01571761674600343
0 0 0
0 0 0
-0.05862914222941466 0.9972799287592723 0.04466953520402108
-0.06548853972777877 0.9967736294030202 0.04640671170265208
-0.07381766589079872 0.995990772515847 0.05053051816199846
-0.08196238441466519 0.9949578840326055 0.05780118115075535
-0.08969787801092048 0.9935756677869159 0.06900494954799684
-0.09727007186363104 0.9916223856530441 0.08499163130219939
-0.1050975059490124 0.9887191916709062 0.1067186687741499
-0.1136761258537028 0.9842652422377131 0.1352762777933683
-0.1235513395696994 0.9773382650696552 0.171886538510637
-0.1353113217510042 0.9665544157988065 0.2178609820638467
-0.1495764823960366 0.949885839051869 0.2744881940680771
-0.1669646134300213 0.9244493656877883 0.3428063420381959
-0.1880097307050159 0.8863151266945721 0.4231995242821185
-0.2130103888942971 0.8304520136437787 0.5147582221374351
-0.241790644438086 0.7510301689706724 0.6144029374588778
-0.2733930449143168 0.6423946218862855 0.7159506915731375
-0.3058083495771503 0.5009582380932418 0.8096431911746148
-0.3359641848067668 0.3277842658450859 0.8829980416691321
-0.3602272493777455 0.1306784844561767 0.9236663155631366
-0.3754352337244014 -0.07608649387514477 0.923720320620961
-0.3799960236215081 -0.2753647296237987 0.8830499916262124
-0.3743560283729263 -0.4524347965802335 0.8094197420771567
-0.3605627896867821 -0.5988105195887007 0.7151366556981925
-0.3413258404159774 -0.7127749853681835 0.6127385175568058
-0.3191846015100129 -0.7974367449257876 0.5120701397280044
-0.2960831468780821 -0.8581691943908681 0.4193809770760947
-0.27330294217191 -0.9006728714524338 0.337777856630367
-0.2515786082521639 -0.9299451552044956 0.2681607953851382
-0.2312576092757677 -0.949933729729194 0.2101090842273081
-0.2124366524136081 -0.9635634502953637 0.1625304462745165
-0.1950571417454305 -0.9729124793173193 0.1240726361561214
-0.1789649027376944 -0.9794159869083742 0.09335892124688815
-0.1639475890528223 -0.9840450817985599 0.0691119745907464
-0.1497675082593611 -0.9874452106859539 0.05021602695508436
-0.1362155811873806 -0.9900338702179607 0.0357526399448993
-0.1232360613784422 -0.9920614737972406 0.02503807866380624
-0.1112665753989066 -0.9936330644730096 0.01769413419680681
-0.1022772250389396 -0.9946604576112005 0.01378199198268153
0 0 0
0 0 0
-0.007111393499878445 0.9990666140229153 0.04260667585340127
-0.01156660916108959 0.9989568102977197 0.04417583855819522
-0.01618794137695916 0.9986949845548578 0.04843839777436739
-0.01998369424467809 0.9982260113564219 0.05608459873961294
-0.02289310342849015 0.9974332476747396 0.06784410253244819
-0.02513725229632844 0.9961011958850775 0.084560783483295
-0.02703373265254227 0.9938673284214038 0.1072236484893686
-0.02894499772820514 0.9901500473634208 0.1369856591498881
-0.03126907844342522 0.9840428220542391 0.1751626932221232
-0.03444429228362725 0.974165279887934 0.2231940818882585
-0.03895467652204577 0.9584663485304493 0.2825328156369973
-0.04532516166654477 0.9339893169650328 0.354414426223161
-0.05409308812815847 0.896645371168645 0.4394326070953333
-0.06573798563066818 0.8411163656684597 0.5368442759775907
-0.08054910842776446 0.7611267529731743 0.6435820903661041
-0.09842158813962427 0.6504467193486394 0.7531482299498989
-0.1186164496818537 0.5049465062487569 0.8549614983682281
-0.1396057083408587 0.3255059341533565 0.9351770597216322
-0.1591985442692199 0.1204672381037433 0.9798691076088768
-0.1750686182596358 -0.09458015021340324 0.9800028439174405
-0.1855035234190965 -0.3008701116987068 0.9354494206986863
-0.1899259094728046 -0.4825044866958493 0.8550541323385921
-0.1888706080010483 -0.6306931151489099 0.7526978729457642
-0.1835383933335066 -0.744158160313519 0.6422945512857425
-0.1752865191733653 -0.8267725009461931 0.5345295762399515
-0.1652993005187868 -0.8846449065128463 0.4359811126974156
-0.1544667921901037 -0.9240202114470043 0.3497522822626496
-0.1433925764445916 -0.9502323373004156 0.2765810444863682
-0.1324507723817355 -0.967403896962011 0.2158390442857723
-0.1218467810865229 -0.9785287870591108 0.1662371042682037
-0.1116649760405348 -0.9856926286906028 0.1262575735188808
-0.1019018312482753 -0.9903060699979055 0.09439229054086543
-0.09248955677221879 -0.9933018878262754 0.06926067808529943
-0.08331886275513595 -0.9952847131131717 0.04966192658789815
-0.07427499032049602 -0.9966374925010083 0.03459673906876504
-0.06531934747209202 -0.9975927144504126 0.0232843063301668
-0.05671996213714558 -0.9982742460823437 0.01521103230844142
-0.04980698854229049 -0.998705219801138 0.01035122380727658
0 0 0
0.08300317532145006 0.9957850648033844 0.03902022041295393
0.05487182855692985 0.9976985834640619 0.03983238612765354
0.04583589651377631 0.9980812475486978 0.04162804201992547
0.04291570166981289 0.998016902215872 0.04604894615104457
0.04282947543055134 0.9976282359183073 0.05388449621987252
0.0445475792336843 0.9968330668117541 0.06587374359402216
0.0476126599918413 0.9954233041157124 0.08285819351071089
0.05172940825034592 0.9930377822424112 0.1058302006099478
0.05665051643064452 0.9890940113106065 0.1359549770241404
0.06213438262551893 0.9826823412265397 0.174570142742886
0.06791906554720915 0.9724158026318758 0.2231468290767272