# OOMMF: rectangular mesh v1.0
# Segment count: 1
# Begin: Segment
# Begin: Header
# Title: 
# Desc: time = 4e-11
# Desc: stepsize = 2.0946914525534757e-14
# Desc: step = 254
# meshunit: m
# valueunit: (none)
# valuemultiplier: 384000.0000000001
# xmin: 0
# ymin: 0
# zmin: 0
# xmax: 9.357999999999999e-08
# ymax: 9.357999999999999e-08
# zmax: 2.3395e-08
# ValueRangeMaxMag: 1
# ValueRangeMinMag: 0
# meshtype: rectangular
# xbase: 1.16975e-09
# ybase: 1.16975e-09
# zbase: 1.16975e-09
# xstepsize: 2.3395e-09
# ystepsize: 2.3395e-09
# zstepsize: 2.3395e-09
# xnodes: 40
# ynodes: 40
# znodes: 10
# End: Header
# Begin: Data Text
0 0 0
0 0 0
0 0 0
0 0 0
0 0 0
0 0 0
0 0 0
0 0 0
0 0 0
0 0 0
0 0 0
0 0 0
0 0 0
0 0 0
0 0 0
0 0 0
-0.9685293376604096 0.2248748765895095 0.1066874499176953
-0.9762191018474864 0.1875993969854225 0.1086403766506387
-0.9843859937713735 0.1369120917309788 0.1106313445845846
-0.9904038225548712 0.08072602971916699 0.1121765411950247
-0.9933084766505742 0.02280057857155897 0.1132183899855376
-0.9929104791986877 -0.0339384973775478 0.1139164548833319
-0.9897252584309381 -0.08550245359479582 0.114600363232767
-0.9855902662844166 -0.1234443002978272 0.1156431222744886
0 0 0
0 0 0
0 0 0
0 0 0
0 0 0
0 0 0
0 0 0
0 0 0
0 0 0
0 0 0
0 0 0
0 0 0
0 0 0
0 0 0
0 0 0
0 0 0
0 0 0
0 0 0
0 0 0
0 0 0
0 0 0
0 0 0
0 0 0
0 0 0
0 0 0
0 0 0
0 0 0
0 0 0
-0.8787767606717882 0.4676420982427915 0.09519597078804064
-0.8951367515647358 0.4347895963275611 0.09842866921506406
-0.916016723232108 0.3879454829513213 0.1020375666937302
-0.9376158069347675 0.3313609859073406 0.1052449314911634
-0.959130833654103 0.261443728575475 0.1082368732112049
-0.9727597067464652 0.2033608645883829 0.1112785320014434
-0.9828972960613636 0.1446916366653529 0.1139176705975047
-0.9897000459950174 0.08404986162194307 0.1158854594795756
-0.9928668778865148 0.02233778499343038 0.1171169763846016
-0.9922791178247359 -0.03913615545796152 0.1176882052923482
-0.9880578550153155 -0.09940106800334221 0.1177331848814434
-0.9801572710269341 -0.1598728608709586 0.1171852909283756
-0.9654943026302624 -0.2336277394464946 0.1150601188493372
-0.9491771273232673 -0.2941912187992389 0.1118673667687226
-0.9323099101163367 -0.3447556016527815 0.109278573507786
-0.9185453402756734 -0.3801846881101454 0.1083238698738109
0 0 0
0 0 0
0 0 0
0 0 0
0 0 0
0 0 0
0 0 0
0 0 0
0 0 0
0 0 0
0 0 0
0 0 0
0 0 0
0 0 0
0 0 0
0 0 0
0 0 0
0 0 0
0 0 0
0 0 0
0 0 0
0 0 0
-0.8096070963100026 0.5807881997529458 0.08497891875175936
-0.8304067997498358 0.5500872260605086 0.08847932331505796
-0.8608335028827897 0.5001780104780297 0.09374240315239293
-0.8854876639995722 0.4539959780350976 0.0989911553247823
-0.909205517390316 0.4030939174112285 0.1042143027279708
-0.9318069404260473 0.346136848406902 0.1092021426016258
-0.9523246385692524 0.2830045676679402 0.1139569982626099
-0.9683401854087754 0.2198128703793562 0.1183198518342822
-0.980298018468264 0.1553955273355515 0.12193451140387
-0.9881744260437604 0.08946449798376582 0.1245287409138829
-0.9917771901446825 0.02253561748352056 0.1259767877561358
-0.9909926547106235 -0.04460495045774893 0.1262693814994444
-0.985827091969412 -0.1113922133600213 0.1254460822101977
-0.9762415001765614 -0.1780599368308177 0.1234795214957586
-0.9618596711333649 -0.2456933597473453 0.1202528420590403
-0.9443996959410822 -0.3075530147660797 0.1162770717497072
-0.924814554999456 -0.3634222618295729 0.1124379760927554
-0.9034820532121126 -0.4144932297404921 0.1091583346470648
-0.8764214144943109 -0.469775045443137 0.1058154567853368
-0.8575933176767064 -0.503692587438667 0.1040551720752016
0 0 0
0 0 0
0 0 0
0 0 0
0 0 0
0 0 0
0 0 0
0 0 0
0 0 0
0 0 0
0 0 0
0 0 0
0 0 0
0 0 0
0 0 0
0 0 0
0 0 0
0 0 0
0 0 0
-0.7590833868268948 0.6461967882867196 0.07888043262646949
-0.7872053964722167 0.6110406282284325 0.0832887412512789
-0.8147834477047508 0.5729091544005462 0.08889901096418587
-0.8440826879957348 0.5276133096695378 0.09564837314586545
-0.8717619069549379 0.4789959424969507 0.1029274727842276
-0.8980630219468296 0.4257927982933192 0.1103779938813554
-0.9225969991972365 0.3673761931846444 0.1176839400828022
-0.9445186086100833 0.3039168030799514 0.1245759800079212
-0.9626206699274782 0.2372340941068175 0.1306959464623546
-0.9764294804049855 0.167892874308122 0.1356372093218043
-0.9855747478905069 0.09645509614816802 0.1390641245886625
-0.9897570812814013 0.02372962046342006 0.1407757975149968
-0.9888207779481326 -0.04933631689031899 0.1407103298757681
-0.9827803508395976 -0.1218391764675412 0.1389172310453541
-0.9717874513271201 -0.1930345143273117 0.1355242624829927
-0.9561486993821227 -0.2620668661670457 0.1307693478123171
-0.936818710376748 -0.3266574406640221 0.125162375923746
-0.9146311568630499 -0.3862774356234977 0.1193297516275511
-0.8901230517379674 -0.4413096616316522 0.1136958016605898
-0.8633417612200386 -0.4928282806340321 0.1084494773652023
-0.8375789825677145 -0.5362860627681878 0.1042051190749626
-0.8111554175592702 -0.576049564457799 0.1009642899852505
0 0 0
0 0 0
0 0 0
0 0 0
0 0 0
0 0 0
0 0 0
0 0 0
0 0 0
0 0 0
0 0 0
0 0 0
0 0 0
0 0 0
0 0 0
0 0 0
-0.6625758181917039 0.7459022647023708 0.06799335746577435
-0.6885486888749883 0.7216514673785824 0.07155321571301146
-0.7286625632558189 0.680506975929256 0.07720831963641306
-0.7616389016810067 0.6425548465759462 0.08384183077623955
-0.7928269735162151 0.6024941781428608 0.09179409223407024
-0.8238570189853185 0.5577372206141019 0.1009396107099719
-0.8540445147477471 0.5082468976265258 0.1108740631631066
-0.8829861013769073 0.4534923189850535 0.1211621285582591
-0.9100539195957819 0.3931307051849094 0.1313396820049819
-0.9343625364009984 0.3272784803564377 0.1409093569138448
-0.9548823907318977 0.2567170121874476 0.1493184366502835
-0.9707934566166806 0.1822613496450785 0.1560155922201082
-0.9814397454545938 0.1048931024131916 0.1605411570537521
-0.9863546156509128 0.02580708742642691 0.162599404742774
-0.9853153259677713 -0.05366331826650825 0.1620924325366604
-0.9783724709727093 -0.1321662556128744 0.1591206740811107
-0.9658440486050308 -0.2084224322180216 0.1539654621094179
-0.9483104611822845 -0.2812042707538516 0.1470762636254983
-0.9266548304645149 -0.3492473427758246 0.139057968994253
-0.9017811678988467 -0.4120028738939684 0.1305540391029795
-0.8744688639888626 -0.4694635398978998 0.122099101636994
-0.8453625934618455 -0.52186842273906 0.1140852090470437
-0.8153879574991568 -0.5689724583964589 0.1068308024478082
-0.7833285500322493 -0.6134746766259417 0.100225764367601
-0.744338277547083 -0.6612194855904603 0.09353780227121089
-0.7188420844077968 -0.6893403620251194 0.08986613915892347
0 0 0
0 0 0
0 0 0
0 0 0
0 0 0
0 0 0
0 0 0
0 0 0
0 0 0
0 0 0
0 0 0
0 0 0
0 0 0
-0.6041828596107094 0.7945625209421058 0.06027829183670601
-0.6346025334628135 0.7701168274069126 0.06480506667915717
-0.6652464671311635 0.7432921321883967 0.07045526379435743
-0.699532219328336 0.7103488972220983 0.07784033875132874
-0.7329642176217053 0.6746933010532185 0.08690457525419612
-0.7660072939333953 0.6353715884035589 0.09765126875967803
-0.7990445365828085 0.5911476700735677 0.1098738400337263
-0.8317292473345654 0.5413451651973661 0.1231741500710007
-0.8634951306069706 0.4853853859289781 0.1370298746428213
-0.8935386318282897 0.4229007666010616 0.1508099964812093
-0.9208313259149566 0.3538976018359224 0.1637869244734919
-0.9442162889590219 0.2788763963241935 0.1751672207854081
-0.9625935644742863 0.198731114199232 0.1841726740909715
-0.9750273088549622 0.1147397313772057 0.1901487339703741
-0.9808501028536977 0.02851098383440605 0.1926660310814664
-0.9797519190305168 -0.0581439047218273 0.1915866996942072
-0.9718236808173707 -0.1433834380338399 0.1870826638151503
-0.9575434031017513 -0.22550340000156 0.179607482483478
-0.9377165105663716 -0.303058282936552 0.1698335154048698
-0.9133815428258288 -0.3749562450806013 0.1585622007294436
-0.8856259517613305 -0.4406524325277542 0.1466018665440861
-0.8554503449187453 -0.5000723968618761 0.1346562485561572
-0.8237071448243425 -0.5534533524905422 0.1232717574398487
-0.7910715199582224 -0.6012284690703988 0.1128280917602155
-0.7575307125278046 -0.6445432893408261 0.1034947715724064
-0.7229459482767323 -0.6842837792810492 0.09541941774659903
-0.6918513532736237 -0.7164720464071745 0.08949587527126802
-0.6612389149373478 -0.7452781645929372 0.08557777020617845
0 0 0
0 0 0
0 0 0
0 0 0
0 0 0
0 0 0
0 0 0
0 0 0
0 0 0
0 0 0
0 0 0
-0.5392774938390679 0.8404757995832909 0.05272774367903288
-0.5708760986033363 0.8190484315755246 0.0570976950244642
-0.6015258751159576 0.7963664720416394 0.06298463125186883
-0.6328277853408801 0.7710582668876645 0.07069754709144777
-0.6657810551074219 0.7417908174339446 0.08051068146977845
-0.6994615478464108 0.7086600280568822 0.09249058178388574
-0.7337886188222223 0.6709633373083457 0.1065948538862075
-0.7687211876008986 0.6277242207535546 0.1225970571131554
-0.8038872164387353 0.5780542112402062 0.140066670246153
-0.8386213884576951 0.521182986408285 0.1583744344893735
-0.8719653004554994 0.4565688592214501 0.1766957599682973
-0.9026914598820769 0.384056942239443 0.1940319390555416
-0.9293935549810552 0.3040276170770597 0.2092721386475522
-0.9506486554577157 0.2174594598754937 0.2213109061639197
-0.9651975002434533 0.1259336837063664 0.2292040419188404
-0.9721267364868593 0.03153876103874269 0.232325019658988
-0.971014383107253 -0.06333359891064316 0.2304775977136745
-0.961996413631946 -0.156261896742858 0.2239310603413417
-0.9457348598271007 -0.2450700587472841 0.2133687915638476
-0.923299974869019 -0.3280399184455202 0.1997672853925914
-0.8959984202390239 -0.4040334356516758 0.1842384699368638
-0.8651773838242481 -0.4725332872145117 0.1678701492025219
-0.8320718738917937 -0.5335473391641391 0.1516035406877611
-0.7977148720616075 -0.5874594003109775 0.1361706131219197
-0.762882554097725 -0.6349059927281619 0.1220843521963342
-0.728019321319592 -0.6767283354054771 0.10966598307904
-0.6935600016160189 -0.7135423912068299 0.09915533323642726
-0.6606985882733354 -0.7451337269377406 0.09084659835950842
-0.6287561716612248 -0.7729769648344853 0.0846893643451596
-0.5964832601618771 -0.7985764379198601 0.08051952027853677
0 0 0
0 0 0
0 0 0
0 0 0
0 0 0
0 0 0
0 0 0
0 0 0
0 0 0
-0.474960258974108 0.8788301804386404 0.045500179619807
-0.5043586395797998 0.8620767286959794 0.0494578256907028
-0.5334449009283017 0.8440472889407482 0.05496100167725405
-0.5630735350848524 0.8240356619187266 0.06255734947400944
-0.593843513880823 0.8013026442588066 0.07255310693223886
-0.6261788630876661 0.775013302647958 0.08517283687269077
-0.659986192392478 0.7445222379483383 0.1005229478859275
-0.6952332299264299 0.7089363060047933 0.1185751661788477
-0.7317995612534163 0.6671720268064868 0.1391074721078332
-0.7692958114785272 0.618103729358896 0.1616531292435089
-0.8069977305538223 0.5606762522496124 0.1854637512947193
-0.8438123246475036 0.4940600067825874 0.2094885926988998
-0.8782881278614817 0.4178561739053976 0.2323923027699392
-0.9087022571959303 0.3323156237012201 0.2526391379242137
-0.9332403199139793 0.2385042083425381 0.2686600973158323
-0.9502465800356689 0.1383549784179871 0.2790866121430283
-0.9584979756670912 0.03454854412431868 0.2829982839894583
-0.9574279731546135 -0.06978808745332227 0.2801094412379843
-0.9472271322575342 -0.1715004875186609 0.2708289916091502
-0.9287868183894105 -0.2678269752380968 0.2561713436762352
-0.9035101776723007 -0.3567051893538495 0.2375516085624373
-0.8730560539878048 -0.4369051800009347 0.2165340395494287
-0.8390886119405807 -0.5079955391049027 0.1946042999554441
-0.8030926376857037 -0.5701829519268946 0.173013342337957
-0.7662713877333964 -0.6241064292380915 0.1527066643104132
-0.7295106093679052 -0.6706498320475655 0.1343245085389833
-0.6933986467896938 -0.7107849227269584 0.1182502019205598
-0.6583786430660467 -0.7453704797435764 0.1046919781136133
-0.6248957861647986 -0.7750587362971636 0.09375079585220487
-0.592859245057323 -0.800766982343657 0.08538240766278574
-0.5619861292648674 -0.823316363849379 0.07950946818919381
-0.5316968809505733 -0.8435063364349221 0.07612809718867032
0 0 0
0 0 0
0 0 0
0 0 0
0 0 0
0 0 0
0 0 0
0 0 0
-0.4439547504771211 0.8950139788215611 0.0430599261819473
-0.4651243985534855 0.8839899739373054 0.04712769725522788
-0.4911134269967736 0.869427452205391 0.05388420153558119
-0.5190452393374934 0.8523932376316765 0.0633861811507186
-0.5486527014815967 0.8325996011289817 0.0758822598293314
-0.5801458668283456 0.8093433158812503 0.09161970443267228
-0.6136747522683985 0.7817505564150715 0.1107671701048878
-0.6493281074551067 0.7487252368450392 0.1333548970983413
-0.6870412298106356 0.7089643210546674 0.1591978015293669
-0.726468237505109 0.6610378054291447 0.1878108614794161
-0.7668787721619273 0.6035146907030472 0.2183276595235233
-0.8070827215503119 0.5351606811101768 0.2494404256904506
-0.8454088318428375 0.455215973898174 0.279396356722963
-0.8797805261076158 0.3637198740515813 0.3060948857816936
-0.9079232975076486 0.2617982686359305 0.3273178155586198
-0.9276973259968297 0.1517957414511693 0.3410802313468508
-0.9374899840709187 0.0371410011602521 0.3460246751310119
-0.9365487819500503 -0.07808498122565315 0.3417295930042729
-0.9251315185320813 -0.1897781859872901 0.3288098440465225
-0.9044167050015706 -0.2944383183475256 0.308766093350262
-0.8762182542166841 -0.3895973861475885 0.2836466951762928
-0.8426186766828476 -0.4739578420748821 0.2556515786005779
-0.8056385249819922 -0.5472735928055902 0.2267998714340481
-0.7670137869554803 -0.6100801145246477 0.1987262048191064
-0.7280926044655326 -0.6633909163075943 0.1726083760515914
-0.689825566430712 -0.7084366148510218 0.1491919925363691
-0.6528216450895648 -0.7464694003540522 0.1288694457100511
-0.6174576458813822 -0.7786215390524759 0.1117790430544783
-0.5839762165523794 -0.8058464259315422 0.09789441411300127
-0.5525121791068629 -0.8289419906293717 0.08709459288612732
-0.5236602471765958 -0.8482277842655771 0.07930681891776795
-0.5006752773088748 -0.8623969646706809 0.07480469248969039
0 0 0
0 0 0
0 0 0
0 0 0
0 0 0
0 0 0
0 0 0
-0.3568562897595581 0.9334716554187423 0.03583653148443036
-0.3919647545715044 0.9191261059870447 0.03963372890344352
-0.4176894649863321 0.9074646629302429 0.04520394199991725
-0.4429049706061957 0.8949655672045863 0.05358936956615341
-0.4691869382664624 0.8806894045999955 0.06519041022610357
-0.4971468414133043 0.8639359699871133 0.08037199658587552
-0.5272330299223515 0.8438772602943122 0.09948116262419605
-0.5597932897107444 0.8194828643641036 0.122797833077081
-0.5950691762660191 0.7894642669297962 0.1504621105098573
-0.6331221516962323 0.7522604477215564 0.182374778479087
-0.6737150342572696 0.7060821816248197 0.2180733945433522
-0.7161789730912805 0.6490348649101103 0.2565958351825558
-0.759289961912271 0.5793530089127308 0.2963593170511546
-0.8011978186891292 0.4957662450979968 0.3351087667447895
-0.8394726553289411 0.3979683745450548 0.3700092347725172
-0.871333054263287 0.287079742788056 0.3979496574052487
-0.894072164900772 0.1659130611654628 0.4160622790933489
-0.9056018661641285 0.03884076581843492 0.4223466051842786
-0.9049353136842861 -0.08881501488512572 0.4161778119723313
-0.8924081064981189 -0.2117191513198528 0.3984755606318199
-0.8695434549130627 -0.3254505362998303 0.371451380990846
-0.8386360624253122 -0.4270929705463288 0.3380549501333774
-0.8022411631706097 -0.5153584026580644 0.3013549948555609
-0.7627461919240935 -0.5903316075342825 0.2640584023493353
-0.722113341938434 -0.6530335560936015 0.2282531401980065
-0.6817895828874611 -0.7049823287378657 0.1953532206887752
-0.6427333865842325 -0.7478503348593799 0.1661736152964013
-0.6055039696085405 -0.7832407966914291 0.1410630964727292
-0.5703712710176182 -0.8125675434623401 0.1200441606631687
-0.5374023836263716 -0.8370208660267888 0.1029307918382936
-0.5064897750412034 -0.8575975831806322 0.08941192930168508
-0.4773106070957344 -0.8751676391066465 0.07909606699703528
-0.448534661956386 -0.8909069582758503 0.07142442662942826
-0.4114042911497888 -0.9091195350615623 0.06517806527496857
0 0 0
0 0 0
0 0 0
0 0 0
0 0 0
-0.2864767636239204 0.9576480470639881 0.02900485921520345
-0.3162817031048825 0.9481179864501476 0.0322206153074787
-0.3430662255590989 0.9385906822217704 0.03678445496544445
-0.3667034996831523 0.9293088701644799 0.04374433853364194
-0.3897812539310696 0.9193318103426248 0.05384790224395498
-0.4137040388727831 0.907895850411501 0.06763204141472851
-0.439287630135187 0.8942591721719471 0.08559737727614379
-0.4671399525960664 0.8775338428480975 0.1082340951123767
-0.4977648970421884 0.8565858260122871 0.135980991125329
-0.5315616184158956 0.829959348192321 0.1691440988484414
-0.5687557431620651 0.7958312075900237 0.2077729377131952
-0.6092763303102952 0.7520201442669674 0.2514916617709403
-0.6525932995195586 0.6960932451757805 0.2992927988489301
-0.6975404295144946 0.6256259392038633 0.3493272582951669
-0.7421772513447631 0.5386638499842312 0.3987658264025361
-0.7837802933974655 0.4343761858616477 0.4438533325751536
-0.8190697362500444 0.3137669109016153 0.480286469497674
-0.8447271504027966 0.1801568147805895 0.5039638513430134
-0.8581200284519455 0.0390878837159075 0.5119591332481956
-0.857978447065101 -0.1025249823248077 0.503350387276155
-0.8447137740563639 -0.2377755726904201 0.4795012168401627
-0.8202265461870778 -0.3611242421526008 0.4436414032298235
-0.7873230677819717 -0.4691971841128569 0.3999704856098137
-0.7490303531743443 -0.5608498449853212 0.3527052330253378
-0.7080637798351233 -0.6366911453691457 0.305401488362652
-0.6665485358046708 -0.6984078517194073 0.260652109282337
-0.6259619065781025 -0.7481538715337724 0.2200851562966804
-0.5872091347728222 -0.788121247321639 0.1845273192769494
-0.5507522182591712 -0.8202978051040067 0.1542190164154556
-0.5167376108175651 -0.8463672708265644 0.129014279985384
-0.4850872992128025 -0.867703959177188 0.1085364057386336
-0.4555272229840338 -0.8854256892524914 0.0922837901920181
-0.4275088492641206 -0.9004919276986451 0.0796898484779905
-0.3998429257887273 -0.9138956830212251 0.07014495884864659
-0.3700784773830925 -0.9268574896778138 0.06306436716524384
-0.3383888437010564 -0.9391821501923829 0.05856517069619262
0 0 0
0 0 0
0 0 0
0 0 0
-0.2547297788188513 0.9666647160936677 0.02592424429848222
-0.2722868169704771 0.9617816890207259 0.02891145047425243
-0.2924493142159943 0.9556656018148165 0.03430242152558043
-0.3122698949107308 0.9490386065404365 0.04258210925057092
-0.3321314406890309 0.9416643351768519 0.05437817541776835
-0.3528547296330626 0.93303219373083 0.07031689155112454
-0.3751859006654431 0.9224678508372131 0.09104177125711829
-0.3997895265856983 0.9090815121581897 0.117214072041553
-0.4272740320850253 0.8916810949606582 0.1494714902433437
-0.4581768368031691 0.868678365059942 0.1883398106981837
-0.4928964165437326 0.8380075041455177 0.2340866197674414
-0.5315656816415817 0.797090543860645 0.2865040854662658
-0.5738668419841475 0.7429093238186469 0.3446194774740129
-0.6188042113039242 0.672271584823477 0.4063646937314541
-0.6644895249482389 0.5823640601719096 0.4683009424015202
-0.7080510409794896 0.4716237499673467 0.5255804047285232
-0.7458213963214442 0.3407826833499405 0.5723789020552251
-0.7739198592930876 0.1936777471757347 0.6029402803269154
-0.7891614961775089 0.03725282289199081 0.6130549405538247
-0.7899594657009457 -0.1195945721920817 0.6013827241047658
-0.7767675154146875 -0.2680173776396413 0.5699113196626849
-0.7518270680258939 -0.4011730861079876 0.5232745118636876
-0.7183957740561286 -0.5152733760744135 0.4673337776441707
-0.679879494541714 -0.6095098221118237 0.4077519462257858
-0.6392093514251072 -0.685243480331877 0.3490741722232538
-0.598565721362181 -0.7450107555892129 0.2944113640241517
-0.5593712041254078 -0.7917135154087483 0.2455474811811612
-0.5224224116228016 -0.8281115843774828 0.2032388438611841
-0.4880581925532931 -0.8565799556884638 0.1675409806416377
-0.456306881624673 -0.8790433493845833 0.1380826552637932
-0.4269879203129842 -0.8970087779759938 0.1142653409429402
-0.3997610869305268 -0.9116418062868127 0.09539544227184556
-0.3741313834314407 -0.9238516516745335 0.08077025213475666
-0.3494803353772817 -0.9343437506286307 0.06975135013607585
-0.3256049355643152 -0.943477361206522 0.06190230065947278
-0.3057152110929413 -0.9503939222949037 0.05735505358123778
0 0 0
0 0 0
0 0 0
-0.173938852275935 0.9845788988533739 0.01869940110291593
-0.2030467046504673 0.9789284834205374 0.02170391850685211
-0.221635743099161 0.974792117702547 0.02565004182971494
-0.2382777991656204 0.9706694597589497 0.03200766027151627
-0.2542615854384827 0.9662439376913459 0.04151745470318965
-0.2702803608504817 0.9612164707624758 0.05487643276911545
-0.2870290088768836 0.9551503878776916 0.07281541457856903
-0.305189873095198 0.9474278258059247 0.09612313066476266
-0.3254306180586528 0.9371811236077889 0.1256441577758599
-0.3484099299142533 0.9231949504565362 0.1622393422961842
-0.374760021686587 0.9037877342783928 0.2066945996232069
-0.405026193939543 0.8766893648406553 0.2595564289285393
-0.4395476276759785 0.838952428934137 0.320868672496912
-0.4782669533376628 0.7869705666097913 0.3897923147459089
-0.5204718214328152 0.7167243815708263 0.4641284778553497
-0.5645129734547729 0.6244067111307845 0.5398530928836914
-0.6076173769353268 0.5075270660397398 0.6109152154622818
-0.6459928653665092 0.3663673873958891 0.6696776503275864
-0.6754123452830342 0.2052449440053153 0.7083026731557113
-0.6922575235746914 0.0326980643055576 0.720909396280077
-0.6946319521250306 -0.1400331483153449 0.7056041159601194
-0.6829401147068193 -0.3018312318198597 0.6651997498664158
-0.6595952002906806 -0.4444300430043591 0.6061485862630056
-0.6280873362196163 -0.5637372214970824 0.5363829258834547
-0.5919711527897653 -0.6595114361999769 0.4632653880727544
-0.5541925410005433 -0.7340895038492722 0.3924069671115563
-0.5168414960514153 -0.7910047316267685 0.327393314689531
-0.4812013169171307 -0.8339707276872458 0.2700705795861968
-0.4479270226400422 -0.8663185050281634 0.2210285733442499
-0.4172386783309688 -0.8907803936486975 0.1800615883404824
-0.3890768583274963 -0.9094780628372189 0.1465225290931899
-0.3632062092266504 -0.9240053667729101 0.1195630869209475
-0.3392725388621731 -0.9355395785957651 0.09828449142602855
-0.316829889719652 -0.9449458981054147 0.08182952177535843
-0.2953687141484012 -0.9528562128095515 0.06944321718179736
-0.2743486980970979 -0.9597245909052038 0.06051034179597926
-0.2525969120073133 -0.9660359415000639 0.05449183218111039
-0.2213716526245734 -0.9738854772757023 0.05041496370862486
0 0 0
0 0 0
-0.1434019635128994 0.9895371996357086 0.01587474087235368
-0.1563122683819502 0.9875382584012296 0.01829379531850354
-0.1693231045528873 0.9852988538775826 0.02271243738777586
-0.181530052754272 0.982932891304952 0.02982903179652905
-0.1932042802070778 0.9803282331280502 0.040356677783236
-0.2048000818755848 0.9772552377707548 0.05503750279017643
-0.216858878803341 0.973341446423997 0.07469039668791948
-0.2299655901857117 0.968023152844238 0.1002347389283667
-0.2447352930645547 0.9604676173024443 0.1326898354885234
-0.2618115688308232 0.9494616214642876 0.1731396309131704
-0.281853211333595 0.9332679730607776 0.2226424436624053
-0.3054891085030282 0.9094619710566947 0.2820555402535047
-0.3332207891361192 0.8747842597446207 0.3517334283097892
-0.3652522573988608 0.8250921791249897 0.4310611144742841
-0.4012361735394564 0.755560761507706 0.517819919193256
-0.4399619673925418 0.661349847643116 0.6074947294178863
-0.4790897005363294 0.5389295726685039 0.6928405116210756
-0.5151389209747449 0.3879874089493534 0.7642628229828681
-0.5439783326864586 0.2132446295545335 0.8115505538990223
-0.561870808204161 0.02491494268884687 0.8268497085437077
-0.5666914716244739 -0.1632149095743959 0.8076024203038953
-0.5586213038589214 -0.3375920386854002 0.7576106218178262
-0.5398835389942935 -0.4885370716170613 0.6854613730756994
-0.5137694828440783 -0.6118240328415833 0.6014252001168466
-0.4835934310960406 -0.7079894382162637 0.5146730503678795
-0.4520351506259447 -0.780494225321026 0.4318483377750929
-0.4209346271963651 -0.8339243913178054 0.3569091609811728
-0.3913758675440683 -0.8727897139920927 0.2916556967620014
-0.3638784601917475 -0.900940738553306 0.2364281113224608
-0.3385866752288581 -0.9214062497699173 0.1907081179247604
-0.3154129671082486 -0.9364495851904824 0.1535474994148192
-0.2941313749193035 -0.9477079413350552 0.1238401882207519
-0.274432438156231 -0.9563421299666215 0.1004816766307745
-0.2559592444761186 -0.9631642281250472 0.08245929194151462
-0.2383498969924925 -0.9687317684784527 0.06890636650032766
-0.2213091201080561 -0.9734086692858025 0.05914250515695697
-0.2047329992243594 -0.9773975189438865 0.05271137439806643
-0.1897326365090792 -0.9805908619499176 0.04942760467219807
0 0 0
0 0 0
-0.1003768059793618 0.9948628216478005 0.01313251401513965
-0.1070426029462644 0.9941359641624803 0.01534815667185514
-0.1149989969430841 0.9931644460121904 0.01999034465393091
-0.1226263560516185 0.9920685896789009 0.02761684583760043
-0.1296968874113247 0.9907907434895955 0.03888984457603594
-0.1364331049606475 0.9891452822847107 0.05456755817055085
-0.143221506123948 0.9868043078800992 0.07553051127104826
-0.1505235124099069 0.983247039781008 0.1028004424779829
-0.1588514561278625 0.9776750434632884 0.1375417183079906
-0.1687656188060752 0.9688890466083396 0.1810308848550016
-0.1808695707083486 0.9551244366219847 0.2345709039060767
-0.1957858825573286 0.9338525679961571 0.29931132527559
-0.2140935653852639 0.901580683813186 0.3759204913749359
-0.2362051487263776 0.8537367827383522 0.4640480939673355
-0.2621639575950571 0.7848137613812115 0.5615491245516916
-0.2913645941906523 0.6890493019488692 0.6635644149107847
-0.3222635337994766 0.5619313160501594 0.761826365273091
-0.3522527940353999 0.4025286924259063 0.8449192984351488
-0.377946717078116 0.2158752615615372 0.9003078087496585
-0.3960117238034606 0.01374536839360668 0.9181425703331346
-0.4042686476775199 -0.1876503307349522 0.8951838994754386
-0.4024249868468299 -0.3724842398076192 0.8362473444240457
-0.3919635361897807 -0.5298678530836564 0.7520669149524652
-0.3753531106734394 -0.6556270166945597 0.6551818505483525
-0.3551584466483562 -0.7511703119730289 0.5564221780129447
-0.3334754405185209 -0.8210684761917842 0.4632933066374684
-0.3117531111086326 -0.8708720423984743 0.379989320222027
-0.2908571803034866 -0.9057732201796747 0.3081833452204182
-0.271219808793983 -0.9300365867562783 0.2479349967481127
-0.2529849318473992 -0.9469052892614107 0.1984162226909147
-0.2361170661254063 -0.9587276025911484 0.1583985956824085
-0.2204722830896912 -0.9671496090714156 0.1265448776609584
-0.2058432318037618 -0.9732996904437105 0.1015690725701475
-0.1919957097415173 -0.9779372448649989 0.08231884684995096
-0.1787230153043964 -0.981559195010805 0.0678205757144868
-0.1659676299001808 -0.9844640553623832 0.05731727073724618
-0.1541545613463229 -0.9867639828082656 0.05033103861923853
-0.1452255985431949 -0.9882925332198301 0.04676958744420859
0 0 0
0 0 0
-0.04977833752959405 0.998705449365785 0.01046625624924336
-0.05411918222147209 0.9984560386067973 0.01251611302682795
-0.05850366938184689 0.99813806869871 0.01725446270587677
-0.06195845076473036 0.9977610220005351 0.02518121036173307
-0.06441275078807769 0.9972403607883512 0.03691422964970919
-0.06606685438359833 0.9963952872738607 0.05321280156406465
-0.06721456163807332 0.9949162319063681 0.07499262759121909
-0.0681951311167132 0.992305473005594 0.1033405648093626
-0.06938591100559099 0.9877856863161487 0.1395171432579486
-0.07120869313065169 0.9801683047650225 0.1849308420915411
-0.0741374708500913 0.9676751540425282 0.2410569054491508
-0.07869830410350405 0.9477162111017708 0.3092580801630502
-0.08544984040429147 0.9166530580801681 0.3904426921933063
-0.09492901498255638 0.8696350957677581 0.4844824891814394
-0.1075419900092843 0.8006976651801806 0.589336889529113
-0.1233852994337922 0.7034405093709662 0.699962511610121
-0.1420115242221465 0.5726532035058044 0.8074038862320654
-0.1622249831502626 0.4069567771456057 0.8989267135741147
-0.182081339213668 0.2116274307950198 0.9602396661486423
-0.1992620911023816 -0.0003707419849409413 0.9799461626027659
-0.2117737781328231 -0.2109943835070671 0.9542710500815909
-0.2185977371275802 -0.4027503356770883 0.8888234900331413
-0.2198769186223297 -0.5639576629611598 0.7959936526408585
-0.2165950098072685 -0.6906214459789833 0.6900207388770911
-0.2100586521267188 -0.7849064213750275 0.5829213260389032
-0.2014939126647541 -0.8522535003378507 0.4827672051008945
-0.1918576577603864 -0.8989238968229752 0.3938609740495938
-0.1818102021002202 -0.9305844831286422 0.3177382101234827
-0.1717626074712364 -0.9517692023266604 0.2542301952505921
-0.1619402895896124 -0.9658467811396014 0.2022754012971009
-0.1524369769827231 -0.9752031335170656 0.1604425642616835
-0.1432536466487962 -0.9814736984028984 0.1272311756809539
-0.1343259613867873 -0.985753322401559 0.1012270886265281
-0.1255488981406444 -0.9887608982161503 0.08117487501968412
-0.1168125477167704 -0.9909580238313017 0.06600775484954967
-0.108081442571602 -0.9926269710607076 0.05486436087740427
-0.09961955858097923 -0.9939089261678463 0.0471273809160757
-0.09273863244694837 -0.9947782810112595 0.04261123889483691
0 0 0
0.03847072212809177 0.9992467820917961 0.005086454377400669
0.01103639336671934 0.9999158297318731 0.006821398175902935
0.002342241495838117 0.9999537099063373 0.009332306752752392
-0.0003486691085095708 0.9998981632256458 0.01426680089690938
-0.0001989873712152082 0.9997500038368533 0.02235822515848547
0.00181578009771149 0.9994107455794137 0.03427629739392479
0.005269540549271099 0.9986951740944466 0.05079548388254618
0.009888427203888413 0.9972941962480978 0.07284576265846673
0.01544067306161737 0.9947120063609115 0.1015362497675285
0.02169575529405266 0.9901720665979272 0.1381614010185563
0.02839961595036278 0.9824826054856165 0.184177609203904
0.03525173649234487 0.9698536555490317 0.2411248678433106