# OOMMF: rectangular mesh v1.0
# Segment count: 1
# Begin: Segment
# Begin: Header
# Title: 
# Desc: time = 2.2e-09
# Desc: stepsize = 2.9527602023488154e-14
# Desc: step = 14078
# meshunit: m
# valueunit: (none)
# valuemultiplier: 384000.0000000001
# xmin: 0
# ymin: 0
# zmin: 0
# xmax: 9.357999999999999e-08
# ymax: 9.357999999999999e-08
# zmax: 2.3395e-08
# ValueRangeMaxMag: 1
# ValueRangeMinMag: 0
# meshtype: rectangular
# xbase: 1.16975e-09
# ybase: 1.16975e-09
# zbase: 1.16975e-09
# xstepsize: 2.3395e-09
# ystepsize: 2.3395e-09
# zstepsize: 2.3395e-09
# xnodes: 40
# ynodes: 40
# znodes: 10
# End: Header
# Begin: Data Text
0 0 0
0 0 0
0 0 0
0 0 0
0 0 0
0 0 0
0 0 0
0 0 0
0 0 0
0 0 0
0 0 0
0 0 0
0 0 0
0 0 0
0 0 0
0 0 0
-0.9857647024999214 0.1678511749779031 0.00969197419404379
-0.9905245442076976 0.1369112808711256 0.01079020353653767
-0.9953996665825673 0.0951102930208373 0.01155577469508923
-0.9987226896273754 0.04909031421114975 0.01196370653731731
-0.9999240704803696 0.001868534449534869 0.01218038804713511
-0.9989402908129292 -0.04431401221636147 0.01243236549768203
-0.9961797468670791 -0.08635719787925185 0.01297483357446258
-0.9929828051175149 -0.1174337600352765 0.01394491824743816
0 0 0
0 0 0
0 0 0
0 0 0
0 0 0
0 0 0
0 0 0
0 0 0
0 0 0
0 0 0
0 0 0
0 0 0
0 0 0
0 0 0
0 0 0
0 0 0
0 0 0
0 0 0
0 0 0
0 0 0
0 0 0
0 0 0
0 0 0
0 0 0
0 0 0
0 0 0
0 0 0
0 0 0
-0.9266794437067913 0.3756863251208686 0.0111800594116518
-0.9379383036125957 0.3465794928300379 0.01242552880160151
-0.9519991900283615 0.3058265455230104 0.01294859987817843
-0.9661773991056135 0.2575704609833013 0.01259726503495669
-0.9800293920751449 0.1984963696784248 0.01189881898792864
-0.9886331659498961 0.1498280565291748 0.01249066293576189
-0.9947667948499713 0.1013196846830403 0.01316606849608866
-0.9985699581768088 0.05169558746109951 0.01362368759981392
-0.9999024923238485 0.001506746992258522 0.01388292325327506
-0.9987289609350232 -0.04840121189308279 0.01406361535770313
-0.9951377035470974 -0.09745316527666517 0.01427695893975988
-0.9890435300629973 -0.1469181860411001 0.01442020287363852
-0.9782241423216825 -0.2071000083666332 0.01367895878889916
-0.9664125125359559 -0.2566976835003643 0.01237557673350224
-0.9542577387334891 -0.2987549676890019 0.01173189449284184
-0.9443339416206949 -0.3287634059522486 0.01216674195495304
0 0 0
0 0 0
0 0 0
0 0 0
0 0 0
0 0 0
0 0 0
0 0 0
0 0 0
0 0 0
0 0 0
0 0 0
0 0 0
0 0 0
0 0 0
0 0 0
0 0 0
0 0 0
0 0 0
0 0 0
0 0 0
0 0 0
-0.8776628079055587 0.4791771996152784 0.009859360435103623
-0.8926281457427867 0.4506608052312345 0.01094678291229874
-0.9143323811698799 0.4047906060264303 0.01186853053126973
-0.9317272203895597 0.3629178138158008 0.01323054043885068
-0.9479982567537273 0.317955376564756 0.0142717800381509
-0.9630738368305523 0.2688267491948266 0.01486484879909337
-0.9764341217601145 0.215270201089616 0.01533448353840053
-0.986591333647943 0.1624130535211626 0.01611025812035235
-0.9938633918408214 0.1093206066483695 0.01686900473322369
-0.9982997180729677 0.05563271290875082 0.01739753286661719
-0.9998430993263338 0.001539816979174372 0.01764669071472499
-0.9984599961606951 -0.0525945910761543 0.01764780599156878
-0.9941526558141225 -0.1065684370274753 0.01742599114102119
-0.9868549866907254 -0.1607222013357422 0.01689997755740157
-0.9762795852985002 -0.2159310368430062 0.01587320564007416
-0.9636109666723808 -0.2669098170770181 0.01459638505356212
-0.9493944166508621 -0.3137881756097989 0.01368292657448474
-0.9337929827075792 -0.357562911281674 0.01339514545854029
-0.9140699540021328 -0.4053362210982295 0.01336663968037993
-0.9003067831809585 -0.4350412528431767 0.01366764365181585
0 0 0
0 0 0
0 0 0
0 0 0
0 0 0
0 0 0
0 0 0
0 0 0
0 0 0
0 0 0
0 0 0
0 0 0
0 0 0
0 0 0
0 0 0
0 0 0
0 0 0
0 0 0
0 0 0
-0.8405735734742369 0.5416038743626692 0.01006532920956058
-0.8616339218302312 0.5074149492073849 0.01081915303159668
-0.8822372039119867 0.4706440342755008 0.01231702214174665
-0.9037091592718495 0.4279167075068624 0.01403733894486136
-0.9235748508382592 0.3830864792841989 0.01594503962753057
-0.9419079587472234 0.3354021255020494 0.0177429269666955
-0.9584866269237169 0.2844833177199203 0.01930357343762264
-0.9728599956034134 0.2304675176188899 0.02069184083430621
-0.9843476439482981 0.174861866819088 0.02197824801883165
-0.9927371996686049 0.1180789295100387 0.02302648040624439
-0.997892575562761 0.06040550889285187 0.02369772419694281
-0.999711285415085 0.002212739943902205 0.02392591890938168
-0.9981449734225828 -0.05607794347504497 0.02370392977631477
-0.9932052784172356 -0.1140711540113727 0.02304445153729252
-0.9849525758279268 -0.1714252678323481 0.02194996397580496
-0.9735337128008558 -0.2276266351061888 0.02045055085844986
-0.9595181350137287 -0.2810215672551825 0.01875706046308633
-0.9433519719802792 -0.3313473151213033 0.01720504934085864
-0.9253080641014236 -0.3788789614812355 0.01599121808291557
-0.9054278845974616 -0.4242308803508348 0.01511641326905603
-0.8860939018487 -0.4632731124877875 0.01468401690354565
-0.8663442780736066 -0.4992318451152233 0.01466821979553109
0 0 0
0 0 0
0 0 0
0 0 0
0 0 0
0 0 0
0 0 0
0 0 0
0 0 0
0 0 0
0 0 0
0 0 0
0 0 0
0 0 0
0 0 0
0 0 0
-0.7677212287883391 0.640691572358007 0.01088227812300669
-0.7879769673361654 0.6155955839209039 0.01159206645859052
-0.8187641180004872 0.5740084545719086 0.01181580106692156
-0.8443611857090823 0.5356113275976504 0.01321717886064858
-0.8683440515230593 0.4957230392682725 0.01540378275438925
-0.8916709285556598 0.4523256998494502 0.01801156362984793
-0.913732796660835 0.4057814656660628 0.02082734808539796
-0.9341918249874896 0.3559879136373275 0.02362709187956338
-0.9526616400347497 0.3028972985615404 0.0262493072369793
-0.9686646130096939 0.2467197154098363 0.02860506128062964
-0.9816689750191798 0.1881196776022236 0.03061062533872371
-0.9912964723795472 0.1276667364974116 0.03213266624426417
-0.9972778460172534 0.06591588943704274 0.03304532285982422
-0.999440302041951 0.003456425945575905 0.03327364984452184
-0.9977134655693092 -0.05909271547767176 0.03280078656302427
-0.9921352051968154 -0.1211015329040581 0.03165680554571794
-0.9828561621357857 -0.1819315802213546 0.02991094565328987
-0.9701580500592097 -0.2408874360820974 0.02768756116209381
-0.954498049589929 -0.2971507890942958 0.02519686229787261
-0.9363389713924838 -0.3503631354029086 0.02269369961702735
-0.9161001455438149 -0.4004314573509312 0.02037575270780834
-0.8941918493295726 -0.4473077574704513 0.01834956945854378
-0.8712996608914697 -0.4904682336558859 0.0166677144469256
-0.8466951773150225 -0.5318605035987728 0.01522108482145202
-0.817182735095393 -0.5762177954536191 0.01361725613268118
-0.7976133188987717 -0.6030293603225978 0.01298399415450343
0 0 0
0 0 0
0 0 0
0 0 0
0 0 0
0 0 0
0 0 0
0 0 0
0 0 0
0 0 0
0 0 0
0 0 0
0 0 0
-0.7212221049203221 0.6926348897453646 0.009776752105151519
-0.7460580073390641 0.6657913989200536 0.01092075131768328
-0.7712371959145718 0.6364253565546787 0.01248812123891252
-0.7990083164775679 0.6011490016752846 0.01433833966995419
-0.8259545226631804 0.5634821360336676 0.01694133593234881
-0.8521505408460791 0.5229046122392953 0.02025394368034535
-0.8776316815447837 0.4787313281100855 0.02406131822715392
-0.9019949406775326 0.4308288926090248 0.02813524987297817
-0.9247796133027391 0.3791348631399239 0.03224007399971165
-0.945471824073454 0.3236908762783471 0.03615586394170364
-0.9635063227374869 0.2647275103902653 0.03968515197724529
-0.9783062796791647 0.2027284183780762 0.04263814632737686
-0.9893744219178506 0.1383065687656056 0.04482796327074221
-0.9963260796869021 0.07217453558975048 0.04609966754903855
-0.9989116636517535 0.005123243346913753 0.04635990291290253
-0.997033760294839 -0.06200950657563449 0.04559059032935561
-0.9907558364297284 -0.1283750945718489 0.04384869067711566
-0.9803014257187183 -0.1931493307743903 0.04126076532558049
-0.9660444056299186 -0.2555636744540946 0.03801860926780937
-0.9484845508768188 -0.3149536237143583 0.03436963277652007
-0.9281669632016577 -0.3709055142670714 0.03058084216125212
-0.90563661398761 -0.4232014200289828 0.02688645552148118
-0.8814288481946193 -0.4717338960139993 0.02345883462066459
-0.8560573839550528 -0.5164778556443669 0.02040539156759687
-0.8296567110815072 -0.5579912003892228 0.01776406613391002
-0.8023331565167743 -0.5966724785410167 0.01560318254551697
-0.7774593068579994 -0.6287687594595045 0.01438309103199315
-0.7531666300852786 -0.6576757273027652 0.0142360473012372
0 0 0
0 0 0
0 0 0
0 0 0
0 0 0
0 0 0
0 0 0
0 0 0
0 0 0
0 0 0
0 0 0
-0.6684825386739122 0.7436720174052003 0.009111861311512461
-0.6950260148688571 0.7189122080578286 0.01020175283626069
-0.7214857832688372 0.6923227653128849 0.01214302970727468
-0.7485958886033279 0.6628613563052861 0.01479925279565413
-0.7767954211284213 0.6294921962053862 0.01812315177990638
-0.8051664267872349 0.5926325117850063 0.02222006188267424
-0.8333778526643927 0.5520412445453582 0.02705215350572748
-0.8611371432560901 0.507335724272499 0.03245432762573382
-0.887982710930722 0.4582880781177641 0.03819348823099578
-0.9133499153805456 0.4047917146082824 0.04399545270634602
-0.9365975307495954 0.3468838362462361 0.04956480147094866
-0.9570315746380221 0.2847972896302038 0.05459916634122886
-0.9739511868651746 0.219001221150473 0.05880094164652985
-0.9867192442603876 0.1501794209566089 0.06189729014542172
-0.9948233026641747 0.07919866209714399 0.06367235191482484
-0.9979250024107497 0.007061743417904708 0.06399860423012504
-0.9958935794831587 -0.06515455968032723 0.06285588036996481
-0.9888189757021302 -0.1363698988102766 0.06033476601317185
-0.9770024618791294 -0.2055714761129838 0.05662647517591418
-0.9609254693058907 -0.2718785751525923 0.05200271927744979
-0.9411988903910368 -0.3345978162895859 0.04678621656985107
-0.9184951749251992 -0.3932683499449038 0.04131124024692716
-0.8934955357170835 -0.4476361644431866 0.03588303131333484
-0.8668559093894765 -0.4976094365515899 0.0307519269534789
-0.8391707329999397 -0.543241078821444 0.0261076838738522
-0.8109003365204107 -0.5847670257705982 0.02209456499894415
-0.7825499051738998 -0.6223019934492873 0.01886464580539015
-0.7551785172158537 -0.655308214041688 0.01662984501302703
-0.728592374771332 -0.6847731368436891 0.01545647056492341
-0.7023721840701497 -0.7116474453583547 0.01520620134862695
0 0 0
0 0 0
0 0 0
0 0 0
0 0 0
0 0 0
0 0 0
0 0 0
0 0 0
-0.6149881324483423 0.7884942526390072 0.008149263951615058
-0.6402438933779877 0.7681136304275196 0.009444985105925825
-0.6663780316919971 0.7455248090364883 0.01153594336874594
-0.6935812659482438 0.72023130777696 0.01455647016006131
-0.7218732898637057 0.6917773216849609 0.01852270454690015
-0.7512034913254184 0.6596545565917443 0.02343460237023067
-0.7811786242758207 0.6236197438568312 0.02929798707208158
-0.8114508860328143 0.5833082524819231 0.03604083993256531
-0.8416218342389215 0.538313352360303 0.04349049094830733
-0.8711575105831183 0.4883074971372869 0.05138462799458356
-0.8993917442036188 0.4330909091287547 0.05938648742265052
-0.925546389190829 0.3726407327893898 0.06710265063322204
-0.9487654069114682 0.3071686859973808 0.07410533712734924
-0.9681721320986648 0.2371681161331266 0.07996253696193355
-0.9829494008903497 0.1634245435547258 0.08427866784205568
-0.9924255819070819 0.0869896180101386 0.08674255434813614
-0.9961516062157938 0.009117389608557224 0.08717138659226997
-0.9939544564026483 -0.0688306065698622 0.08553879936344656
-0.9859563588723517 -0.1454969064883316 0.0819799280403402
-0.972555930687276 -0.2196380146257864 0.07677306960287972
-0.9543757024670281 -0.290214686403515 0.07030259124865415
-0.9321873044471474 -0.3564498566430091 0.06301054774193751
-0.9068297435590688 -0.4178477135167505 0.0553453205376603
-0.8791404823674134 -0.4741677558669323 0.04771741358150318
-0.8499052173130333 -0.5253790859984777 0.0404714415296675
-0.8198210195691865 -0.5716168128592641 0.03387794458281009
-0.789477062068819 -0.6131344882008698 0.0281436999316516
-0.7594208649994242 -0.6501774617734767 0.02343540068624739
-0.7302454739080085 -0.6828952430996009 0.01989057034888555
-0.7022346057933114 -0.7117286924155306 0.01757346917347728
-0.6756286595416341 -0.7370578949528088 0.01647949919469757
-0.6505245656767347 -0.7593039070141555 0.01659416295369191
0 0 0
0 0 0
0 0 0
0 0 0
0 0 0
0 0 0
0 0 0
0 0 0
-0.5886832056237157 0.8083139900657293 0.008976462588638484
-0.6089279809448144 0.7931511428016954 0.01086179979725193
-0.6343270490785432 0.7729394664240654 0.01392034666909449
-0.6619621431332361 0.7493169263051349 0.01817319485058571
-0.6911715706046464 0.722303311730754 0.02365979396974986
-0.7217186982867285 0.691518798150849 0.0303952685020982
-0.7533362048200122 0.6565159534785255 0.03835838025207353
-0.785703769100224 0.6167802392971938 0.04745233012400486
-0.8183918428814473 0.5717789136442639 0.05747752097031646
-0.8508106157201255 0.5210381881894764 0.06812123476690495
-0.8821958414684318 0.4642154016438224 0.07895921841349134
-0.9116209537424393 0.4011763920839941 0.08946920773201121
-0.9380361362750398 0.3320773627144145 0.09905974063580671
-0.9603401862151544 0.2574346513072311 0.1071173517529543
-0.9774838233553571 0.1781577682394937 0.1130715910143446
-0.9885895280580451 0.09552809040914416 0.1164694335727343
-0.9930646022375332 0.01111556024675297 0.1170433257525175
-0.9906815339362582 -0.07335794957729647 0.1147549979369809
-0.9816058079175671 -0.1561837979992136 0.1098028192035184
-0.9663648791362948 -0.2358263876411566 0.1025906197662181
-0.945767910792053 -0.3110459541059641 0.09366682096849988
-0.9207978140453119 -0.3809648247489184 0.08364919577258498
-0.8925008560511615 -0.4450741741911167 0.0731519064415857
-0.8618948988817718 -0.5031921878587675 0.06272802690573172
-0.8299050782060957 -0.5553971767824961 0.05283499966656877
-0.7973267135350854 -0.6019548268164679 0.04382349091178572
-0.7648176929870221 -0.6432432313244179 0.03594498364625527
-0.7329325246592241 -0.6796670903943944 0.02936938084933353
-0.7021717760810057 -0.7115962032552504 0.02420000801564693
-0.6730121377884146 -0.7393478554484543 0.02047952717323259
-0.6463644503569369 -0.762811384929944 0.01821505794761296
-0.6253986581905281 -0.7801115147539651 0.01739375985117336
0 0 0
0 0 0
0 0 0
0 0 0
0 0 0
0 0 0
0 0 0
-0.513045109133161 0.858297435717964 0.0104989444474038
-0.545241194528603 0.8382085978612848 0.01088054504336226
-0.5712133099575656 0.820694791904153 0.01324435988337552
-0.5979022224164762 0.8013823249226203 0.01730033904448555
-0.6261879861817081 0.7793344334130874 0.02294442979021788
-0.6561741377405806 0.7540054497816032 0.03018745865499277
-0.6878186751848582 0.7248313703891809 0.03905066666124892
-0.7209738760825335 0.6911910705989487 0.04951337123248689
-0.7553762720340169 0.6524018496809703 0.06146961998287262
-0.790605079519043 0.6077538415498205 0.07469187586426579
-0.8260363977972575 0.5565766320512371 0.08880496702680613
-0.8608158203367787 0.4983279410673929 0.1032733586625842
-0.8938591257533244 0.4327023312461742 0.117407648139411
-0.923891405149091 0.3597514042091577 0.1303978476094472
-0.9495344820699465 0.2799930289433809 0.1413795285862439
-0.9694428373520662 0.1944760758780378 0.1495314047879386
-0.9824708090957311 0.1047675559155455 0.1541910130398713
-0.9878367984755765 0.01284393364323835 0.1549628760254876
-0.9852424003346203 -0.07910383353887855 0.151789314848999
-0.9749127761227739 -0.1689116659006704 0.1449618159214535
-0.9575478620291481 -0.2546730442999899 0.135069361553174
-0.9342017979098926 -0.334906888191243 0.1228998658420014
-0.9061269072363802 -0.4086349083232181 0.1093230976596748
-0.8746214777998225 -0.4753708264432249 0.0951832334917186
-0.8409095136843396 -0.5350462302515417 0.08122020246700269
-0.8060636617557783 -0.5879062556123509 0.06802652283286542
-0.7709695846642937 -0.6344019455614655 0.05603633633985465
-0.7363256867808491 -0.6750932102112596 0.04553724314631213
-0.7026703915992871 -0.7105687175478217 0.0366935745348901
-0.670415698273791 -0.7413962621258613 0.02956981592546433
-0.6398593117750094 -0.7681126460874418 0.02414589106574971
-0.611153580773488 -0.7912512759962139 0.02031548527863586
-0.5837055086265557 -0.8117697876116957 0.01782389182743228
-0.5510553813594081 -0.8343114375033378 0.01619851616508317
0 0 0
0 0 0
0 0 0
0 0 0
0 0 0
-0.4498088487193965 0.8930706058143757 0.009843406121577553
-0.4777089205188083 0.8784523745602497 0.01075234328938067
-0.5047484510959588 0.863174668275758 0.01258940678765103
-0.5307640054747137 0.847366600872581 0.01610634092787679
-0.5576147135789095 0.8298221821255726 0.0214703808225002
-0.5860961929279678 0.809731185397389 0.02875169612876544
-0.6165060161833089 0.7864312242063113 0.03802974629349366
-0.6489422277583132 0.7592341044170067 0.04937164897168026
-0.683367352254895 0.7273696566531727 0.0627888879689687
-0.7195961826946119 0.6899766282042133 0.07818942628825726
-0.7572496844244461 0.6461309680902791 0.09532936333467484
-0.7956982549747871 0.5949125212041505 0.1137689726797214
-0.8340146780486807 0.5355116239228095 0.1328413243042622
-0.870955803048002 0.4673751557382976 0.151645814105141
-0.9049941556161724 0.3903803206844467 0.1690821797910089
-0.9344188749618122 0.3050051835703267 0.1839380442168818
-0.9575121418488201 0.2124455064175656 0.1950318051371845
-0.972781206036616 0.1146214672773965 0.2013917685038856
-0.9791961099304438 0.0140371233541592 0.2024300804352597
-0.9763660428438208 -0.08649846057427886 0.1980589980278035
-0.9645982107687709 -0.184225401757549 0.1887095470000256
-0.9448220689833873 -0.2767674322869959 0.1752456743751866
-0.9184089809123884 -0.3623619194328054 0.158804228924927
-0.8869474818764999 -0.4399460783290245 0.1406115662235754
-0.8520348578132486 -0.5091123901345483 0.121824362434793
-0.8151239740116072 -0.5699796147302086 0.1034221725914072
-0.7774366635185851 -0.6230322740410273 0.08615694818385743
-0.7399353491125911 -0.6689682556629675 0.07054893371889992
-0.7033362718791898 -0.7085753967832189 0.05691217560931357
-0.6681457857073707 -0.7426443869985175 0.04539298955869378
-0.6346980551202561 -0.7719208313538808 0.03600845662475865
-0.6031687686261983 -0.7970979260246555 0.02867634706771292
-0.5735206729194763 -0.8188615835272619 0.02323240747782463
-0.5452231003183069 -0.8380654964517414 0.01944208158580446
-0.5166905507825529 -0.8560019035403207 0.0170767639606834
-0.4882318431185787 -0.8725632780915475 0.01621706173039357
0 0 0
0 0 0
0 0 0
0 0 0
-0.4204529479995721 0.9072618776085537 0.009757251491592416
-0.4393386944711956 0.8982485812482097 0.011445428166886
-0.4625087568114304 0.8864955732583556 0.01453438908532782
-0.4871483861641976 0.8731038797881225 0.01939239429634067
-0.5133195883363173 0.857794582804239 0.02629551182111547
-0.5414174372964392 0.8400060654543149 0.03545375285237054
-0.5717454196280159 0.8190807763297695 0.04705164164410597
-0.604493772888637 0.7942524730686854 0.06123959146775407
-0.6397336678462578 0.7646187222117985 0.07809637550597326
-0.6773815614942481 0.7291318690248337 0.09757529256920718
-0.7171365706891661 0.6866216203983908 0.1194398986171286
-0.7584024099352028 0.635862119985135 0.1431961904957169
-0.8002114394401182 0.5756964953793453 0.1680333222819597
-0.84117597926756 0.5052264083050341 0.1927932785510316
-0.8795002834256433 0.4240572843918805 0.2159969236086384
-0.9130881566062315 0.332559495585349 0.2359538093810983
-0.9397653678065836 0.2320703438253156 0.2509669479994439
-0.9575973105911921 0.1249420726036256 0.2596090700303543
-0.9652310155834468 0.01436421387823844 0.2610033638009424
-0.9621556852394719 -0.09603667027880854 0.2550164608865889
-0.9487888786624209 -0.2027200709927951 0.2422895716764985
-0.92635985518953 -0.3027189538296468 0.2240951888941756
-0.896641585365944 -0.3939533536733893 0.2020757841057046
-0.8616301450987116 -0.4753157203195961 0.1779563403597525
-0.8232645368781438 -0.5465634010404766 0.1533099832427157
-0.7832386918797255 -0.608102588812246 0.1294155826103666
-0.7429125237177912 -0.6607479505801214 0.1072060068626344
-0.7033007442328491 -0.7055138220814252 0.08728293082601828
-0.6651094658200145 -0.7434606915515443 0.06996855432488128
-0.6287931694854216 -0.7755986850829701 0.05536993503739088
-0.5946103555289041 -0.8028396388366452 0.04344006687880307
-0.5626622461181782 -0.8259862373110735 0.03402840821932409
-0.5329082080982976 -0.8457446930607682 0.02692129084958331
-0.5051993079694341 -0.8627252064896077 0.02188326563079625
-0.4797068602587906 -0.877229030448607 0.01872315034520626
-0.4594591931359571 -0.8880291618920313 0.01736253069661795
0 0 0
0 0 0
0 0 0
-0.3447286606679565 0.9386595222001234 0.00896949815273732
-0.3733144821214967 0.9276498611067499 0.01010112008570463
-0.3947372433969465 0.9187074105444523 0.01261754675388143
-0.4165810403402346 0.908942482629345 0.01684636758028266
-0.4397808125719686 0.8978084404512089 0.02308335218520911
-0.4647445198703657 0.8848788438183018 0.03165379934933486
-0.4918612403398409 0.8696173585007512 0.04287388535610555
-0.5214800365515985 0.851354632649302 0.0570426239290838
-0.5538855905881946 0.8292599885893767 0.07442193133420659
-0.5892689921005863 0.8023092159426771 0.09519441665457561
-0.6276753358867116 0.7692643595981328 0.1193985668740532
-0.6689232377507291 0.7286829051091049 0.1468432014048862
-0.7125005320378134 0.6789783531755721 0.1770067449698454
-0.7574509097690501 0.618557849859914 0.2089361281988298
-0.8022810702315589 0.5460586585019549 0.2411742644295808
-0.8449355748983501 0.4606839419326342 0.2717612553632385
-0.8828969138619588 0.3625928826309648 0.2983612591446746
-0.9134537599372133 0.2532371306615319 0.318548558481876
-0.9341260005347298 0.1354882316754006 0.3302295477428725
-0.9431501970367053 0.01342149973271974 0.3320957229091455
-0.9398615354153284 -0.1082584168185402 0.3239450716320347
-0.9248199216242894 -0.2249932954489025 0.3067346240154276
-0.8996330958590978 -0.3330830862436409 0.2823401326297519
-0.8665636147121728 -0.4301083526918711 0.2531290315267239
-0.8280795440097192 -0.5149920199618768 0.2215118239919501
-0.7864879301931672 -0.5877818256074 0.1896029038440578
-0.7437154012594691 -0.6493022239125334 0.1590409505495495
-0.7012296222821309 -0.7008059494078405 0.1309505177868147
-0.6600590141709421 -0.7436982898863883 0.1059950538079249
-0.6208632889159488 -0.7793543975121677 0.08447188618064838
-0.5840184904955192 -0.8090188972320262 0.06641405484391688
-0.5496941645238587 -0.8337658382831366 0.05168029025107278
-0.5179122381925222 -0.8544967969373699 0.04002671050919111
-0.4885880285597362 -0.8719579531680643 0.03116193599680995
-0.4615681005921892 -0.8867583307665238 0.02479014586255308
-0.4366638624497157 -0.8993879899315992 0.02063770329501102
-0.413161362222155 -0.9104715081913907 0.01842068235508593
-0.3837402699716428 -0.9232694887194661 0.01780046071835428
0 0 0
0 0 0
-0.3149259157895282 0.9490759365371674 0.008748385578199335
-0.3300623572149851 0.9438986270900538 0.01068747524903014
-0.3479317009380209 0.9374131400310881 0.01414695654303217
-0.3674467225033777 0.9298405182474442 0.01948118956453515
-0.3886453417737998 0.9209891638752983 0.02708797411775713
-0.4117892280508396 0.9105122319948857 0.03737789519200118
-0.4372397558305708 0.8979106453113677 0.05077271863653895
-0.4653879342613372 0.8825142304279452 0.06769566999547573
-0.4966098819519727 0.863445602857755 0.08854555919556334
-0.5312232586266321 0.8395749927222503 0.1136471780975443
-0.5694237527712613 0.809480225747899 0.1431724620973717
-0.6111896062118227 0.7714325503187466 0.1770284880106907
-0.6561510731237896 0.7234388227031091 0.2147138538717015
-0.703434476782965 0.6633811723523509 0.2551575141779998
-0.7515119154582154 0.589297566103625 0.2965775101194748
-0.7981172358269617 0.4998252073953208 0.3364277633135438
-0.8403149694942569 0.394765465097828 0.3715252072335883
-0.8748034709431848 0.2756240349865473 0.3984347858351353
-0.8984637974324756 0.1458794957835667 0.4141038244367551
-0.9090323353851978 0.01073660412527076 0.4165872520325001
-0.9056509769142582 -0.1236938368148698 0.4055812406266656
-0.8890502893463657 -0.2515441976808075 0.3825115679639788
-0.8612883466067802 -0.368225737393109 0.3501316756888171
-0.825188101424998 -0.470985736873314 0.3118285312932541
-0.7837251580967856 -0.5589017140784182 0.2709312653910095
-0.7395663887481972 -0.6324825944185544 0.2302331956767408
-0.694830929741956 -0.6931301251123213 0.1917827122962495
-0.651040771747283 -0.7426525539011883 0.1568856198213973
-0.6091868102011031 -0.7829167037509513 0.1262254541079168
-0.5698422656476587 -0.815644019207618 0.1000231283873179
-0.5332791639702369 -0.8423181455313512 0.07818871391594867
-0.4995665873309744 -0.8641641194644244 0.06044501181039798
-0.468645839833415 -0.8821656764945136 0.04641978050152341
-0.4403899071561535 -0.8970960980320311 0.03571163074823278
-0.414666041024904 -0.9095447258312295 0.02793682396632401
-0.3914263726732988 -0.9199279057015113 0.02276055991083214
-0.3708553650767754 -0.9284772552966072 0.01990689806699983
-0.3542724795713997 -0.9349475064434248 0.01908324955434941
0 0 0
0 0 0
-0.2731773690870804 0.9619148100875707 0.009696553658542207
-0.2836697455608531 0.958847810873888 0.01193109533081819
-0.2982850444590322 0.9543419662223546 0.01604505403303554
-0.3151179731533096 0.9487894701131447 0.02234288249459896
-0.3338035820186229 0.9421245901727613 0.03124780349628824
-0.3544880941587685 0.9340603598780066 0.04323696571513913
-0.3775143760811053 0.9241328292109167 0.05883374734555007
-0.4033092910732154 0.9116822447166966 0.0785945316313089
-0.432328872618736 0.8958049878213306 0.1030784637770549
-0.4650110245299107 0.8752892329438381 0.1327912111482908
-0.5017091434594765 0.8485476150209903 0.1680918808608763
-0.5425889935498026 0.813568914197053 0.2090521607896931
-0.5874779873543885 0.7679267052059894 0.2552610228873766
-0.6356685856533305 0.7089033204532904 0.305583918856659
-0.6857031077751361 0.6338024765437462 0.3579185224524338
-0.7352098726368712 0.5405095057235422 0.4090426840804846
-0.7809093236194236 0.4282793084489012 0.4547059074157545
-0.8189248169486651 0.2985686185790024 0.4901213361866841
-0.8454551458429801 0.155537417271641 0.5108950070181664
-0.8576703584032745 0.005795932262887889 0.5141672524437956
-0.8544792846301722 -0.1427515654886887 0.4994868793956823
-0.8367908057151852 -0.282594256339978 0.4689580298429544
-0.8071452112158007 -0.4081047288410877 0.4265760639193694
-0.7689400392493223 -0.5162501366285525 0.3771167093490433
-0.7256305386449199 -0.6064440958118367 0.3250936481090435
-0.6801783383322676 -0.6798681955191177 0.2741106798086009
-0.6348146669308553 -0.7386750622113966 0.2266483865295667
-0.5910415226388964 -0.7853393949580856 0.1841519840880414
-0.5497565159433736 -0.8222426544160033 0.1472575649558537
-0.5114123803310897 -0.8514645718473431 0.116040769270583
-0.4761624517464458 -0.8747159178259455 0.09022961070916183
-0.4439747238547153 -0.893350466751231 0.06936417038706932
-0.4147161083383816 -0.908411482708264 0.0529067818756761
-0.3882201870564078 -0.9206844447413501 0.04031426017179243
-0.3643640526581516 -0.9307376623266926 0.03108441823761323
-0.3432064739025553 -0.9389328530800061 0.02478736933225564
-0.3253369081126303 -0.9453630607216734 0.02108505733126475
-0.3129618429020279 -0.9495617689273521 0.01968074894213716
0 0 0
0 0 0
-0.2239293132613086 0.9745391259923216 0.01136461932665796
-0.2331585177967375 0.9723439688190032 0.01357615115328841
-0.2455107999207236 0.9692244711942009 0.01812102537406784
-0.2596547617470739 0.9653716072926711 0.02524013738540582
-0.2754237903279537 0.960673201445381 0.03533745528564394
-0.2930286389465521 0.9548503547684458 0.04893890840326905
-0.3128403030756828 0.9474631861369024 0.06666675098445986
-0.3353190081366992 0.937870631755885 0.08921794030371064
-0.3609795186642634 0.9251633546545214 0.1173309605743855
-0.3903554307884292 0.9080759231330559 0.1517259222414792
-0.4239409713628381 0.8848868849357669 0.1930006571714389
-0.4620914373370357 0.8533272345996341 0.2414624903175081
-0.5048652395767762 0.8105399349181233 0.2968772537093543
-0.5517991229869715 0.7531660498431492 0.3581321393486985
-0.6016339242217894 0.6776671017402085 0.4228521259784742
-0.6520608763029057 0.5809975604938596 0.4870918273747467
-0.6996333859283762 0.4616553525254569 0.5453324314388345
-0.7400405521289415 0.3209040173432983 0.5910673336072828
-0.7688705278256681 0.1636267670895418 0.6181135757552187
-0.7827327091664715 -0.001885406895104758 0.6223551648711171
-0.780273306614656 -0.1655281752408909 0.6031367922669381
-0.7625358976206906 -0.3178131750053411 0.5635013670194878
-0.7324774946948158 -0.451964484084455 0.5091216209236039
-0.6939675814594383 -0.5647848153791359 0.4465726236576671
-0.6508062364140189 -0.6562547905122357 0.3818126406686415
-0.6061086472065896 -0.7284560001455413 0.3193495946973411
-0.562098297330642 -0.7844506923186723 0.2620736832624524
-0.5201741970667486 -0.8274599558740573 0.2114919055918355
-0.4810958195649813 -0.8603997761023947 0.168104246466432
-0.4451814204335314 -0.8856928620568102 0.1317636406691882
-0.412472261464771 -0.905246608155684 0.1019569121970958
-0.3828522122477996 -0.9205108915863216 0.0779992438932593
-0.3561300991696875 -0.9325619089610727 0.059157741845576
-0.3320998733290291 -0.9421833335720032 0.04472404357825324
-0.3105998502534855 -0.9499305901406966 0.03405300188617376
-0.2916112817836545 -0.9561675570578028 0.02657937483475983
-0.2755161123869597 -0.9610487144546015 0.02182292969180424
-0.2639795631228735 -0.9643327890825908 0.01941808831084443
0 0 0
-0.1345857370514794 0.9908276312968016 0.01213608013646244
-0.164121924815278 0.9863606517866196 0.01251632541931996
-0.1783764113917432 0.9838479966407163 0.01499917881259012
-0.1898415507156529 0.9816102931077628 0.02003542080334539
-0.201374478277217 0.9791164064959088 0.02791741444181723
-0.2138643959424326 0.9760808861997992 0.03909122335758031
-0.2277982484174473 0.9722013195433762 0.05415304512269057
-0.2436163521227236 0.9670574374689764 0.07383079042210643