# OOMMF: rectangular mesh v1.0
# Segment count: 1
# Begin: Segment
# Begin: Header
# Title: 
# Desc: time = 3.6999999999999996e-09
# Desc: stepsize = 2.9541024374336094e-14
# Desc: step = 23678
# meshunit: m
# valueunit: (none)
# valuemultiplier: 384000.0000000001
# xmin: 0
# ymin: 0
# zmin: 0
# xmax: 9.357999999999999e-08
# ymax: 9.357999999999999e-08
# zmax: 2.3395e-08
# ValueRangeMaxMag: 1
# ValueRangeMinMag: 0
# meshtype: rectangular
# xbase: 1.16975e-09
# ybase: 1.16975e-09
# zbase: 1.16975e-09
# xstepsize: 2.3395e-09
# ystepsize: 2.3395e-09
# zstepsize: 2.3395e-09
# xnodes: 40
# ynodes: 40
# znodes: 10
# End: Header
# Begin: Data Text
0 0 0
0 0 0
0 0 0
0 0 0
0 0 0
0 0 0
0 0 0
0 0 0
0 0 0
0 0 0
0 0 0
0 0 0
0 0 0
0 0 0
0 0 0
0 0 0
-0.9864700508514169 0.1634433527293261 0.01277142207427292
-0.9911250839237286 0.1322162224190482 0.0137818194161005
-0.9958357685321343 0.09001619185234321 0.01442939071529636
-0.9989425768680873 0.04356127143690876 0.01470182814974369
-0.9998825099512584 -0.004093272550561216 0.01477198068635471
-0.9986041328869112 -0.05068086119049824 0.01487400719943251
-0.9955417432841409 -0.09307667905715884 0.01527642610244881
-0.9920993848532332 -0.1244112507624978 0.01614469750557344
0 0 0
0 0 0
0 0 0
0 0 0
0 0 0
0 0 0
0 0 0
0 0 0
0 0 0
0 0 0
0 0 0
0 0 0
0 0 0
0 0 0
0 0 0
0 0 0
0 0 0
0 0 0
0 0 0
0 0 0
0 0 0
0 0 0
0 0 0
0 0 0
0 0 0
0 0 0
0 0 0
0 0 0
-0.9274973215590927 0.373538169585768 0.0147632775230396
-0.9387868329545388 0.3441288023599349 0.01595774600320073
-0.9528746832814774 0.3029200496519547 0.01640979829495291
-0.9670465521328061 0.2540986787830492 0.01596331571949118
-0.9808166454593521 0.1943448037806242 0.01512630930972287
-0.9892858727320475 0.1451547931256711 0.01560602593341097
-0.9952355807562321 0.09615111688873149 0.01615863601465919
-0.9988036169927444 0.04604166602872801 0.01647724708528521
-0.9998518671875596 -0.004611376810774972 0.0165824873121906
-0.9983513396858454 -0.05494647167112734 0.01659782510966051
-0.9943988917969077 -0.1043743860749403 0.01663825485321302
-0.9879063139321851 -0.1541610210660995 0.01659802629168894
-0.9765595695903416 -0.2146794388907964 0.01562515788908561
-0.9642728837141071 -0.2645353081023178 0.01410235799045874
-0.9516865427587671 -0.3067843986840139 0.01326864936430775
-0.9414365583127622 -0.3369169125731858 0.01357205564285007
0 0 0
0 0 0
0 0 0
0 0 0
0 0 0
0 0 0
0 0 0
0 0 0
0 0 0
0 0 0
0 0 0
0 0 0
0 0 0
0 0 0
0 0 0
0 0 0
0 0 0
0 0 0
0 0 0
0 0 0
0 0 0
0 0 0
-0.8781795960530852 0.478136772921684 0.01363170774618343
-0.8932525708062673 0.4493153960041917 0.01468058791705245
-0.9151025866972161 0.4029213129328509 0.01554578414011449
-0.9325798472338259 0.3605694051517678 0.01686809419684003
-0.9488982443407843 0.3150763222811997 0.0178614955905142
-0.9639767292815423 0.265350099353736 0.01838994770579137
-0.9772743010027425 0.2111457701756179 0.0187724355517748
-0.987299389867374 0.1576757962710335 0.01944885697941938
-0.9943743669367421 0.1040005407602081 0.02008745630330369
-0.9985514022540242 0.04975945829581407 0.02047176999256816
-0.999777008434972 -0.004847436391170423 0.02055324220775723
-0.998023924879811 -0.05944310333763798 0.02036572692264162
-0.9933020778650539 -0.113813447886386 0.01993693028473771
-0.9855498885212882 -0.1682953285986821 0.01918592211850357
-0.9744752883078484 -0.2237788813185393 0.01791437280951324
-0.9613137124780667 -0.2749675188507194 0.01639541944311496
-0.946620772321817 -0.3219882550388885 0.0152537544839837
-0.930562051955506 -0.3658368919990329 0.01475248836112865
-0.9103182977702861 -0.413654974583108 0.01449685301216876
-0.8962062957253518 -0.4433956075060204 0.01464959885489611
0 0 0
0 0 0
0 0 0
0 0 0
0 0 0
0 0 0
0 0 0
0 0 0
0 0 0
0 0 0
0 0 0
0 0 0
0 0 0
0 0 0
0 0 0
0 0 0
0 0 0
0 0 0
0 0 0
-0.8407700361104624 0.5412128994023897 0.01394072807532485
-0.8620275262036852 0.5066491648611128 0.01466859954770611
-0.8828052305650949 0.4694611060003956 0.01616152343667343
-0.9044400862984083 0.4262257466306199 0.01788136476048537
-0.9244265844905859 0.3808461705224506 0.01979101527091267
-0.9428349334951781 0.3325605918763933 0.02158103129985474
-0.959433322710658 0.2809864844586171 0.02311481827688036
-0.9737558602940756 0.2262779498647227 0.0244502341085354
-0.9851133564861364 0.1699809250821535 0.02565462883834386
-0.9932927665274837 0.1125283615093997 0.02658660979114692
-0.9981609026200947 0.05422287565319905 0.02710520681593394
-0.9996211469239435 -0.004547718405713952 0.02714554990713819
-0.9976343294835267 -0.06334535022201856 0.02670414277229612
-0.9922240693779323 -0.121761333174534 0.02579871877934204
-0.9834638542620237 -0.1794482046742076 0.02443745484472954
-0.9715141632982515 -0.2358958633491253 0.0226577175741187
-0.9569688758392452 -0.2894525362068064 0.02068332561311765
-0.9402875262815918 -0.3398583860030047 0.01885856258246181
-0.9217495633294447 -0.3873958890869117 0.0173829692670319
-0.9013898857786861 -0.4327031154995442 0.01625692630464855
-0.8816362753744712 -0.4716714323954861 0.01560569786389725
-0.8614816383616587 -0.5075551452493832 0.01540004209698804
0 0 0
0 0 0
0 0 0
0 0 0
0 0 0
0 0 0
0 0 0
0 0 0
0 0 0
0 0 0
0 0 0
0 0 0
0 0 0
0 0 0
0 0 0
0 0 0
-0.7671256362939552 0.6413247187599233 0.01486146857140064
-0.7876018644037585 0.6159879050070884 0.01556290694894458
-0.8187405915467056 0.5739466688027175 0.01578179723648892
-0.844605420037559 0.5351124947922905 0.01721343546038375
-0.8688183123936647 0.4947487859628588 0.01945196230978674
-0.8923468408993632 0.4508079401077567 0.02212050344651107
-0.9145696054190827 0.4036553919922351 0.02499522672787378
-0.9351377201181552 0.3531889076251937 0.02783953919770603
-0.953651197464952 0.2993665865896357 0.03048016416183517
-0.9696171644835145 0.2424160662261765 0.032817756997917
-0.9824924357815507 0.1830309395395297 0.03476044883645706
-0.991894304940056 0.1218092528651535 0.036168961056624
-0.9975554352771229 0.05933302576114307 0.03691538436880677
-0.9993108048592262 -0.003782824398944988 0.03692702981789722
-0.9971032482544616 -0.06689674114290131 0.03619307039836149
-0.9909882804658056 -0.1293618895255009 0.03475240305097214
-0.9811368132762284 -0.1905314899888872 0.03268493470669898
-0.9678517014671972 -0.2497107417411651 0.03012688875618743
-0.9516119652516297 -0.3060871189168015 0.02730097476541911
-0.932896748814418 -0.359311564640832 0.02447152563378948
-0.9121359315555719 -0.4093054901242089 0.02184166018025008
-0.8897437789208834 -0.456042702965854 0.01952078234044955
-0.8664106410427007 -0.499023108663005 0.01756525286713393
-0.8413756330475732 -0.5402180888596353 0.0158575087147442
-0.8113511167638831 -0.5843919118431847 0.0139806544291129
-0.7914512157449474 -0.6110902881226936 0.01317698212670481
0 0 0
0 0 0
0 0 0
0 0 0
0 0 0
0 0 0
0 0 0
0 0 0
0 0 0
0 0 0
0 0 0
0 0 0
0 0 0
-0.7201135015325059 0.6937193546573204 0.01378411710716342
-0.7452301941670536 0.666640023103435 0.01493443331319981
-0.7706910812991414 0.6369942246022388 0.01654131280618967
-0.7987787203551838 0.6013416288154289 0.01846080608590071
-0.8260224695946798 0.5632396322742731 0.02116592450726329
-0.8524928842406092 0.5221594800967719 0.02460405788066983
-0.8782207119598753 0.4774028080196515 0.02854715361714327
-0.9027901843473843 0.4288323289552841 0.03275235394291699
-0.9257245965592309 0.3763872171233245 0.0369680147074197
-0.9464916861364367 0.3201186018787647 0.04095813479382469
-0.9645074549091178 0.2602771609832622 0.04451032346802559
-0.9791799919686746 0.1973769242331854 0.04742249580603453
-0.9900041423783438 0.132066586925183 0.04949964334873947
-0.9965960618246872 0.06509616785292952 0.05058436998112095
-0.9987159820211576 -0.002707520153011347 0.0505871188163039
-0.9962845788591357 -0.07047591528912726 0.04949932617353242
-0.9893898101115134 -0.1373383240279681 0.04739186006786052
-0.9782832120389215 -0.2024596490532468 0.04440774198319078
-0.9633669459570032 -0.2650718530729714 0.04075586026495789
-0.9451665898676445 -0.3245200677090522 0.03669936037697714
-0.9242473343503828 -0.3804069936222269 0.03251744377268584
-0.9011673328765991 -0.4325366058239093 0.02845211377750147
-0.876467493079081 -0.4808280861509063 0.02467965040528193
-0.8506593732522598 -0.5252852377128853 0.02130844290391524
-0.8238599229453482 -0.566495590062349 0.01837318166228687
-0.7961516944983669 -0.6048870806606266 0.01594048296768163
-0.7709531221397181 -0.6367269280188509 0.01449491630527683
-0.7463412319639744 -0.6654128860125264 0.01415826963216098
0 0 0
0 0 0
0 0 0
0 0 0
0 0 0
0 0 0
0 0 0
0 0 0
0 0 0
0 0 0
0 0 0
-0.6667595232975589 0.7451570844359211 0.0131399241614471
-0.6936129846736214 0.7202070353257981 0.01424267388430845
-0.7203720329017744 0.6933976458268807 0.01624312084250201
-0.7477885275426931 0.6636649208619788 0.0190050228306513
-0.7763116423506423 0.6299483804202993 0.02247825519672633
-0.8050075876594526 0.5926605362182498 0.02676326998341054
-0.8335349521642126 0.5515501070738897 0.03181136443763263
-0.8615894161639472 0.5062230502140945 0.03744197358855681
-0.8886922938076837 0.456445138510585 0.0434032539896508
-0.9142573540183245 0.4021108580778462 0.0493998829888237
-0.9376188166299794 0.3432686459418164 0.05511434853709191
-0.9580580072595615 0.2801749937270818 0.06022314850509622
-0.9748535055282962 0.2133351035950784 0.06441099543764867
-0.9873561410318541 0.1434781350443016 0.06739343833707992
-0.9950530136210483 0.07152076050977237 0.0689512936772977
-0.9976181166386943 -0.001485551168496418 0.06896293563929688
-0.9949449477372126 -0.07442264898782756 0.06742269862463979
-0.9871566457868393 -0.1461812849845078 0.06444213372595592
-0.9745921155713239 -0.215735327559692 0.06023683847051496
-0.9577699136627922 -0.2822064095608161 0.05510294806233089
-0.9373332677355389 -0.3449166562442733 0.04938466808115335
-0.9139790377330342 -0.4034302021203153 0.04343259837676761
-0.8884034838251098 -0.4575241205404723 0.03756233553807056
-0.8612678386045486 -0.5071408620399835 0.03202899053655483
-0.8331622861927009 -0.5523679777087128 0.0270226214149946
-0.8045335470930818 -0.5934738257079282 0.02268457188088889
-0.7758709091955031 -0.6306005623271059 0.01916410855950541
-0.748229840526079 -0.6632300211625273 0.01667467466162986
-0.7213889189416414 -0.6923616440978566 0.01527682592432201
-0.6948828986799416 -0.7189699102562295 0.0148332487442965
0 0 0
0 0 0
0 0 0
0 0 0
0 0 0
0 0 0
0 0 0
0 0 0
0 0 0
-0.6126333466494004 0.7902732495015757 0.01218908098976529
-0.6381840196135842 0.7697655869841102 0.01349437678650067
-0.6646097515055709 0.7470267534362447 0.01564953207628336
-0.6921128676217727 0.7215445393964089 0.01879510945937869
-0.7207216887626816 0.6928446347382256 0.02294688348168806
-0.7503896780217887 0.6603981200084241 0.02810078660278167
-0.7807172736641719 0.6239448238915489 0.03425485865283328
-0.8113464117346689 0.5831031897014535 0.0413239679274288
-0.8418634716187968 0.5374508689890368 0.0491167850828567
-0.8717128226624679 0.4866498275136648 0.05734718987668603
-0.9002004055079592 0.4304988388511002 0.06565043542246879
-0.9265158035664205 0.3689865898317056 0.0736027327348512
-0.9497699945967926 0.3023523933703444 0.08074644008767477
-0.9690579755503377 0.2311339931794676 0.0866239990949064
-0.9835448526062597 0.1561753394934351 0.09082282888040982
-0.9925567663329814 0.07859439592444618 0.09302680546963869
-0.9956602794389506 -0.0002892580516819482 0.09306193785500931
-0.9927147792151707 -0.07905869206577534 0.0909235411575194
-0.9838871689465087 -0.1563189854439842 0.08677795556583999
-0.9696262063244081 -0.2308113271059273 0.08093918265300341
-0.9506027209769815 -0.301503092336534 0.07382650054462755
-0.9276287897621746 -0.3676417879216822 0.065911639170267
-0.901572271548994 -0.4287682579161853 0.05766472212285175
-0.8732865943241526 -0.4846848036842568 0.04950924409921365
-0.8435610274698564 -0.5354045031599672 0.04179486726893528
-0.8130854934434597 -0.5811037530277317 0.03479092653106533
-0.7824339277223086 -0.6220719591169461 0.02869889247766982
-0.7521352081904097 -0.6585832935297122 0.02367855747137014
-0.7227641842488163 -0.6908092914176467 0.01986093799877643
-0.6945786465871928 -0.7192086630627723 0.01730325635718012
-0.6677867268640777 -0.7441807188951922 0.01599828268270513
-0.6424458550486796 -0.7661653302504005 0.01593769284009018
0 0 0
0 0 0
0 0 0
0 0 0
0 0 0
0 0 0
0 0 0
0 0 0
-0.5860243446446011 0.8101889269548985 0.01301422773487126
-0.6064732645547293 0.7949632005908801 0.01495623905373693
-0.6321317719974646 0.774648478314926 0.01814270861019575
-0.6600550025063385 0.7508772753853412 0.02259891537758557
-0.6895812702921963 0.7236526411666141 0.02836417802059434
-0.7204763134996032 0.6925728896720807 0.03544960052362613
-0.7524698282301729 0.6571670414167398 0.0438250759134825
-0.7852322559180792 0.6168962789049801 0.05337869742690152
-0.8183171932439468 0.5712050703193409 0.06388848787399343
-0.8511090649924081 0.5196023412893519 0.0750117751714505
-0.8828089591042714 0.461738909453037 0.08628743374531529
-0.912448784538704 0.3974906027942063 0.09715161493325684
-0.9389349447321529 0.3270450546616107 0.1069705650270798
-0.9611273223120188 0.2509735487466735 0.115093649411377
-0.9779510173407909 0.1702614152038499 0.1209250105432851
-0.9885236797595848 0.0862785024889037 0.1240038489839788
-0.9922725515818075 0.0006831719565276796 0.124075447423761
-0.9890134817937467 -0.08472859144984619 0.1211338046175994
-0.9789719862293109 -0.1682000485439997 0.1154235411345255
-0.9627419646213096 -0.2481793856868466 0.1074006614374413
-0.9411947714987938 -0.323441319593824 0.09766327294709462
-0.9153629876062516 -0.3931465727409164 0.0868698639496336
-0.8863256370741718 -0.4568391431166595 0.07566282033799003
-0.8551157928658351 -0.5143952413333771 0.06461049825694233
-0.8226583103961059 -0.5659491511662786 0.05417437245037501
-0.7897362315593379 -0.6118157615757596 0.04470076565259663
-0.7569872806331797 -0.6524132125267293 0.03643153963444222
-0.724942063554882 -0.6881767944334716 0.02952463534169246
-0.6940761585063763 -0.7194990302289253 0.02407138742713411
-0.6648397138061581 -0.7467154531748235 0.02010440091280477
-0.6381190802719164 -0.7697358632066541 0.01762782704788639
-0.6170776483804028 -0.7867261462370754 0.01664772345611068
0 0 0
0 0 0
0 0 0
0 0 0
0 0 0
0 0 0
0 0 0
-0.509440832666842 0.8603836602081907 0.01449121314696098
-0.5420139867360845 0.8402369458049359 0.01492357486824951
-0.5682445192431725 0.8226756413230901 0.01740561759137835
-0.5951841841699634 0.8032972559995071 0.0216634581172195
-0.6237417106030896 0.7811430933687746 0.02759974884293146
-0.6540338422307236 0.7556446081463393 0.03522725360117715
-0.686025721359748 0.7262112072618048 0.04456447105249795
-0.7195703198190394 0.6921915853134937 0.05558204797159532
-0.7543969514267684 0.652870424224525 0.06815752967124049
-0.7900676695878519 0.6075055358406505 0.08203719519208434
-0.8259295366772023 0.5553993858700129 0.09680869082574009
-0.8610866090115352 0.4959947978227082 0.1118883922211125
-0.8944025267394589 0.428992106611702 0.1265302044056077
-0.9245451882365329 0.3544773256781459 0.139864293115659
-0.9500836200989413 0.2730359496107727 0.1509718021348138
-0.9696359266143055 0.1858154600311365 0.1589930332820703
-0.9820478504946187 0.0945014570825367 0.1632528528025639
-0.9865634441082214 0.001190188670085751 0.1633742764337558
-0.9829424928752353 -0.09182809446987096 0.1593475973030336
-0.9714907010339026 -0.1823282239250832 0.1515329553759856
-0.9529954808671514 -0.2683887811654996 0.1405954323272409
-0.9285898918464892 -0.3485566891122597 0.1273932778274592
-0.8995855643892492 -0.4219127980472619 0.1128512436192249
-0.867315759080648 -0.4880460696508612 0.09784890366634365
-0.833016072938914 -0.5469657662266607 0.08314248493707144
-0.797751846701951 -0.5989874743306226 0.06932529609491467
-0.762388390379302 -0.6446202451301141 0.05682149050533561
-0.7275963433546285 -0.6844680554453808 0.04590252947051898
-0.6938834622872986 -0.7191507555502864 0.03671418738910487
-0.6616308155602624 -0.7492569762933027 0.02930268548919331
-0.6311055481264537 -0.7753369128604 0.02363173036643867
-0.602429436742837 -0.7979318992242408 0.01958208227189987
-0.5749720735697332 -0.8179987246998405 0.0168878952020479
-0.5421737877818159 -0.8401315977373995 0.01504932973662736
0 0 0
0 0 0
0 0 0
0 0 0
0 0 0
-0.4454680071944448 0.8951917225320098 0.01378529928519584
-0.4736733008962171 0.8805775181182148 0.01472544066730563
-0.5009778194030479 0.8652998056889044 0.01665745301390847
-0.5272149498811686 0.8494881172466541 0.02035522730236784
-0.5542818892666624 0.8319228310102836 0.02599981682269482
-0.5830011586528989 0.8117733631493591 0.03366980680900497
-0.6136882611763156 0.7883520111751416 0.04344910321858111
-0.6464528455803946 0.7609395923400107 0.05540446958890762
-0.681262237681175 0.728728979309073 0.06954019143484244
-0.7179271586404276 0.6908168898627186 0.08574741726070784
-0.7560526133133717 0.6462351238953489 0.1037526411518448
-0.7949780399785749 0.594023099662781 0.1230710080353796
-0.8337283696721185 0.5333437201984867 0.1429737099214706
-0.870996903816895 0.4636415500561772 0.1624835579462953
-0.9051831325032464 0.3848293360581821 0.1804158494717923
-0.934505932274594 0.2974673770731545 0.1954784441333856
-0.9571969475383316 0.202879614756911 0.2064312610516811
-0.971749668682326 0.1031456604001091 0.212281780085843
-0.9771674503312663 0.0009324611349885484 0.2124685965721125
-0.9731376577064875 -0.1008178534558563 0.2069755047779426
-0.9600751195192657 -0.1992689456267641 0.1963355601740668
-0.9390232058246332 -0.292035324359544 0.1815235198233103
-0.9114513098338756 -0.3774046977200443 0.1637748574749914
-0.8790158508785457 -0.4544040744717687 0.1443886110734533
-0.8433477710440275 -0.5227317148068471 0.1245636038743381
-0.805903353717233 -0.5826087668296163 0.1052939185356383
-0.7678857964342456 -0.6346067283690329 0.08732527665742569
-0.7302256654194842 -0.679490187689433 0.07115871272338863
-0.6936015101059806 -0.7180936616702018 0.05708273160759135
-0.6584811827248658 -0.7512376360727953 0.04521665782673156
-0.6251621163172993 -0.7796847899035286 0.03555216891788052
-0.593785436787741 -0.8041366179680076 0.02798490131777471
-0.5642800236511839 -0.8252813567359084 0.02233242334268715
-0.5360776326961534 -0.843969312145854 0.0183458954248993
-0.5075474613219207 -0.8614791598629419 0.01578707153060913
-0.4789795346800199 -0.8777021126878153 0.01475149962060424
0 0 0
0 0 0
0 0 0
0 0 0
-0.4158004261966337 0.9093532799571444 0.01366081278257843
-0.4348310495108362 0.9003802440901554 0.01540696055216748
-0.4581621796398752 0.8886731890220207 0.01863813995735762
-0.4829530489336187 0.8753243518168154 0.02374092757650717
-0.509279536727779 0.8600424400112942 0.03100572285494307
-0.5375573761241851 0.8422466019996245 0.04065376728627753
-0.5681090247925876 0.8212527561581268 0.05287765550679044
-0.6011397544517154 0.7962599598793598 0.06783120160111475
-0.636729857254886 0.7663221177103909 0.08558913942804666
-0.6747959494044071 0.7303393010910466 0.1060892640621354
-0.7150241636089929 0.6870830454940215 0.1290632947430045
-0.7567873358716226 0.6352700277190995 0.1539640222458021
-0.7990652567952539 0.5736983281997854 0.1799025947659056
-0.8403956237229824 0.5014539587710942 0.2056188776840697
-0.8788922793538438 0.4181757275215573 0.2295156251849105
-0.912368076262198 0.32433237460651 0.2497859167361479
-0.9385806412636686 0.2214271945915454 0.2646438688887348
-0.9555751558853 0.1120269600941541 0.2726281013887719
-0.9620423864433472 -0.0004570002271119553 0.2728996845677567
-0.957576301356492 -0.1122202351246471 0.2654321870252158
-0.9427369006407731 -0.2196288342990985 0.2510185477502557
-0.9188991231274047 -0.3197201800822361 0.2310917738991776
-0.8879537512271416 -0.4105004627982664 0.2074307251205958
-0.8519695663985731 -0.4909961242895592 0.1818534131196289
-0.8129116217591618 -0.5611106520919511 0.1559792656664161
-0.7724625609015422 -0.6213821844678223 0.1310945186933003
-0.7319470583472132 -0.6727295798097112 0.1081129789891575
-0.6923330606548194 -0.7162406445090957 0.08760292390967664
-0.6542774035647474 -0.7530221230651839 0.06984813067630964
-0.6181880424662838 -0.7841093931744126 0.05491815444238603
-0.5842817915622343 -0.8104250165063515 0.04273266513458922
-0.5526229045089788 -0.8327733369198261 0.03311336176647114
-0.5231370749548171 -0.8518571909645631 0.02582493000341047
-0.495643709231311 -0.8682812025053058 0.02061715003017744
-0.4702878523399515 -0.8823435996632047 0.01729474124853064
-0.4500951365521779 -0.8928407904669753 0.01580161163876537
0 0 0
0 0 0
0 0 0
-0.3392475212936468 0.9406101664072576 0.01279195635652682
-0.3681129111943612 0.9296763318640409 0.01395716962113893
-0.3896683615332708 0.9208062148845138 0.01656751792002315
-0.4115993871230998 0.911123208031127 0.02098676504264985
-0.4348687690811786 0.9000728689339794 0.02753151442938577
-0.4599048095884803 0.8872159245419949 0.03654407416361873
-0.4871172529673126 0.8719968489620431 0.04835573659707958
-0.5168752766076355 0.8537188019113061 0.06327839832757952
-0.5494814900076641 0.8315132864887164 0.08158275878940714
-0.5851403687625445 0.8043061106330672 0.1034525458494911
-0.6239022130585581 0.7707964136584218 0.1289143794615172
-0.6655773969843417 0.7294677669964824 0.1577450650154013
-0.7096255670595091 0.6786555208094039 0.1893627171604434
-0.7550360095731253 0.6166985629793702 0.222718447074036
-0.8002319534041543 0.5421985671504691 0.256221651175206
-0.8430506851814087 0.4543850168216437 0.2877495416210965
-0.8808615495470792 0.3535323223733135 0.314798074274366
-0.910865207862229 0.2413057176182057 0.3348075921344383
-0.9305545797420717 0.1208646421896075 0.3456297330806969
-0.9382244098135716 -0.003414333889228184 0.3460105477497291
-0.9333490979839379 -0.1265906489824384 0.3359081256575578
-0.9166737198464575 -0.2439964885694098 0.3165043521164527
-0.8899868256793485 -0.3519637126011422 0.2899051485041562
-0.8556854136180237 -0.4482145312561331 0.2586623414650762
-0.8163068982373101 -0.531867463078093 0.2252999103618429
-0.7741670130459035 -0.6031671823808141 0.191976003735813
-0.7311580321532261 -0.6631027715233485 0.1603204491506779
-0.688690341859014 -0.7130463136802058 0.1314175314681541
-0.6477281944898894 -0.7544787949263048 0.1058769761063197
-0.608870247507846 -0.7888161586926182 0.08394098811162408
-0.5724392423035819 -0.8173193392449919 0.06559277069182642
-0.5385601330161588 -0.8410633942054712 0.05064928482406299
-0.5072178019345137 -0.8609425398130511 0.03883354916786313
-0.4782961149737571 -0.8776918797483907 0.02982935843671831
-0.4516141521113276 -0.8919084322888482 0.02332393673492492
-0.4269593728096227 -0.9040704524102919 0.0190344700126664
-0.4035943289253513 -0.9147860947801463 0.01667388545552411
-0.374145083018014 -0.9272340889857787 0.0158871355554033
0 0 0
0 0 0
-0.3091683405569643 0.9509249320800619 0.01251841626491374
-0.3243754064262645 0.9458173336151967 0.01449714243686953
-0.3422755776731089 0.9394256382936728 0.01808034969419701
-0.3617834709891325 0.9319621462828821 0.02364905949205393
-0.3829530195728651 0.9232264269394175 0.03162197654638575
-0.4060641844052388 0.9128590385412326 0.04242939896915567
-0.4314980186427862 0.9003420385653468 0.05651259593528389
-0.4596658708435616 0.8849772860728864 0.0743134598622491
-0.4909635623913662 0.8658472206373329 0.09624640730221549
-0.5257256041243418 0.8417665256538908 0.12264463076985
-0.5641578893951211 0.8112398082608187 0.1536744914622855
-0.6062363516396622 0.7724478044396159 0.1892138350307624
-0.6515684245582735 0.7232957351461587 0.2286960157895774
-0.6992282821685866 0.6615689299140884 0.2709360817386542
-0.7476004387212091 0.5852426533246199 0.3139818796577499
-0.7942987279730914 0.4929671173727645 0.3550675315056493
-0.8362548290547964 0.384675669958729 0.3907716594436394
-0.8700605485404314 0.2621462464302103 0.4174613603150289
-0.8925657374041852 0.1292410372473163 0.4319990262759398
-0.9015853019750907 -0.008429532684455459 0.4325192322211874
-0.8964429559806302 -0.1444468840082928 0.4189571868019501
-0.8781026292393529 -0.2728236785546028 0.3930687127499081
-0.8488362691376424 -0.3890531205465841 0.3579310793846382
-0.8116077398171068 -0.4906065913818516 0.3171719551940991
-0.769444401325867 -0.5768388405043448 0.2742485466759674
-0.7249912235409127 -0.6485151697807428 0.2319823276736917
-0.6803010055171401 -0.7072336057161941 0.1923828704381928
-0.6368124023166813 -0.7549305428625392 0.1566838846497254
-0.5954346145383547 -0.7935428963487946 0.1254882124501196
-0.5566702095245876 -0.8248204674076639 0.09894177264054863
-0.5207343569338216 -0.8502490320995792 0.07689156600334798
-0.4876520147164868 -0.8710414775917378 0.05901065037561017
-0.4573304163027822 -0.8881631807621252 0.04488936024079405
-0.4296155375807417 -0.9023678365443939 0.03409952256850247
-0.4043521125944579 -0.9142269100379263 0.02623977901780566
-0.3814721198224661 -0.9241425410164777 0.02096629871391576
-0.3611403146068867 -0.9323376712581398 0.01800388620790045
-0.344661959189825 -0.9385714904019253 0.01707897222139993
0 0 0
0 0 0
-0.266999681635088 0.9636035275378932 0.01339446614425079
-0.277465248139094 0.9606076701357739 0.01568247912259133
-0.2920124638895139 0.9562064722601924 0.01994751465453051
-0.3087356272709504 0.9507781580060436 0.02651804503063559
-0.3272800997445623 0.9442474700042195 0.03583924806436647
-0.3478071280830666 0.9363154245181091 0.04841102626552565
-0.370677071130091 0.9264998335954807 0.06478091760667848
-0.3963357973014961 0.9141129721682834 0.0855301694786928
-0.4252589033120204 0.8982094655714103 0.1112412743174859
-0.4579026195231131 0.8775174407080621 0.1424371169570738
-0.4946340655063303 0.8503670284213853 0.1794799660532101
-0.5356223395040319 0.8146403283508988 0.2224181756254797
-0.5806791855388129 0.7677846515221416 0.2707737290968305
-0.6290516814589658 0.7069533967906705 0.3232814204679567
-0.6791977855008841 0.629354383488414 0.3776286908520234
-0.7286222874966686 0.5328666044592095 0.4303054078387043
-0.773902586734191 0.4168934040599263 0.4767333383532709
-0.8110456911678073 0.2832345560243945 0.5118428207094411
-0.8362232920136131 0.1365545023180653 0.5311153111995365
-0.8467126963937198 -0.01599956762518844 0.5318097626045263
-0.841653052123378 -0.1661334510991537 0.5138285864734335
-0.8222328347480855 -0.3062224917349551 0.4797509260207446
-0.7912263540651459 -0.4308051674332707 0.4340135531818877
-0.7521579970092007 -0.5371883935242018 0.3816896349103467
-0.7084964304749559 -0.6251635873271452 0.3274191458734511
-0.6631360836788025 -0.6962307113565945 0.274796890606553
-0.6182031651640975 -0.7527621684104626 0.2262166315527423
-0.5750902198466454 -0.7973576545231418 0.1830082233400752
-0.5345994531535647 -0.8324520692322555 0.1456948081396355
-0.4971086785615244 -0.8601328571694209 0.1142559832848287
-0.462716085993062 -0.8820935638590353 0.08834460007112201
-0.4313505071462505 -0.8996598843528717 0.06744503295906364
-0.4028511792655008 -0.9138446042981749 0.05098006041097421
-0.3770314936140349 -0.9254049137140608 0.03837966254464712
-0.3537526396231875 -0.9348854500741498 0.02912499269152006
-0.3330592709187656 -0.9426307125440847 0.02277853866451699
-0.3155261841636693 -0.9487265314382265 0.01900514804744333
-0.3033408093991231 -0.952720874929939 0.01752962708718829
0 0 0
0 0 0
-0.2172387496292592 0.9760037182403689 0.01496888908669314
-0.2263901229173045 0.9738839246590442 0.0172514792462705
-0.2385949254892845 0.9708706088149278 0.02197094604456637
-0.25252922532309 0.9671427377551952 0.02939243380710567
-0.2680382321124906 0.9625798626099481 0.03994388844145409
-0.2853463060132972 0.956892016419673 0.0541770667059173
-0.3048392275137266 0.9496217952344858 0.07274263800870941
-0.3269931357454171 0.9401003449177675 0.09636820357811519
-0.3523395605857483 0.9273755417645538 0.1258230447221065
-0.381428702985301 0.9101184383339538 0.1618535533855075
-0.4147687464566743 0.886517345767966 0.2050704333034849
-0.4527215102127004 0.8541821664268512 0.2557656363725629
-0.495336566444818 0.8101063003163436 0.313639073028894
-0.5421156040809482 0.7507696026429299 0.3774330080415928
-0.5917272865057882 0.6725023857061171 0.4445214951204012
-0.6417506429191953 0.5722307750017996 0.5105957818604051
-0.6886050770763918 0.4486195128395741 0.5697048187651206
-0.7278739348730821 0.30335901946163 0.6149575922318985
-0.7551400336398792 0.1419823149813267 0.6400035561048897
-0.767159442796324 -0.02652926104098406 0.6409076280066045
-0.7628558722456596 -0.1916005812468359 0.6175274369987034
-0.7435818223543765 -0.3436670978175757 0.573566909210938
-0.7125189478708404 -0.4762481145032973 0.515271270649824
-0.6736173588895443 -0.5866358394256811 0.4495531622667123
-0.6306280938885994 -0.6752997022620127 0.3824637490315495
-0.5865425045569294 -0.7446925592743214 0.3184350522626944
-0.5434402534539959 -0.7981022017918514 0.2602029331519051
-0.5025912437128202 -0.8388541533969432 0.2091070325739844
-0.4646546053453127 -0.8698882510293406 0.1655008412441041
-0.4298777162819546 -0.8936064160852757 0.1291228956283114
-0.3982551045231881 -0.9118756071620301 0.09937680204204054
-0.3696412455430661 -0.9261004564724585 0.07552015701039137
-0.3438268280269795 -0.9373147498509959 0.05678179321463781
-0.3205941817173938 -0.9462658938654283 0.04242910270104775
-0.2997730991470162 -0.9534802895953698 0.03180293038262414
-0.2813368206297416 -0.9593005435358365 0.02433229396905585
-0.2656568743004967 -0.9638696026264971 0.01954006830919092
-0.2543766535329601 -0.9669543874829504 0.01708012484861239
0 0 0
-0.1270937206597208 0.9917685653417802 0.01556595544048438
-0.1568275893903608 0.9874963571784298 0.01600161758506467
-0.1710181658439976 0.985092697895478 0.01857857648913295
-0.1822770152997906 0.9829589730949617 0.02380644672136966
-0.1935059922911328 0.9805768071966664 0.03200868843634608
-0.2056152356759858 0.9776586005502403 0.04365816794202138
-0.2191052791124727 0.9738926938641931 0.05937926829281184
-0.2344277507293834 0.9688418930448662 0.07993132032689841