# OOMMF: rectangular mesh v1.0
# Segment count: 1
# Begin: Segment
# Begin: Header
# Title: 
# Desc: time = 1.52e-09
# Desc: stepsize = 2.9884760381548237e-14
# Desc: step = 9726
# meshunit: m
# valueunit: (none)
# valuemultiplier: 384000.0000000001
# xmin: 0
# ymin: 0
# zmin: 0
# xmax: 9.357999999999999e-08
# ymax: 9.357999999999999e-08
# zmax: 2.3395e-08
# ValueRangeMaxMag: 1
# ValueRangeMinMag: 0
# meshtype: rectangular
# xbase: 1.16975e-09
# ybase: 1.16975e-09
# zbase: 1.16975e-09
# xstepsize: 2.3395e-09
# ystepsize: 2.3395e-09
# zstepsize: 2.3395e-09
# xnodes: 40
# ynodes: 40
# znodes: 10
# End: Header
# Begin: Data Text
0 0 0
0 0 0
0 0 0
0 0 0
0 0 0
0 0 0
0 0 0
0 0 0
0 0 0
0 0 0
0 0 0
0 0 0
0 0 0
0 0 0
0 0 0
0 0 0
-0.9868658347228997 0.1596717481824644 0.02451034657097584
-0.9915170975243419 0.127484817317887 0.02532719231041864
-0.9961372655291633 0.08395777611431993 0.02572236486053068
-0.9990199202679735 0.03603730626812486 0.0257004175979419
-0.9995904144298877 -0.01310224592330818 0.02544276973228231
-0.9978131813569767 -0.06110497524199419 0.02519994267739068
-0.9941776520688503 -0.104747150354792 0.02527509880134491
-0.9902344906854377 -0.1369831720040392 0.02590876385825717
0 0 0
0 0 0
0 0 0
0 0 0
0 0 0
0 0 0
0 0 0
0 0 0
0 0 0
0 0 0
0 0 0
0 0 0
0 0 0
0 0 0
0 0 0
0 0 0
0 0 0
0 0 0
0 0 0
0 0 0
0 0 0
0 0 0
0 0 0
0 0 0
0 0 0
0 0 0
0 0 0
0 0 0
-0.9260364401758486 0.3764465833726435 0.02728518523859118
-0.937738838383976 0.3461772131263243 0.02841140789123537
-0.9523449636081287 0.3036618344347759 0.02878472855418734
-0.9670040448127476 0.2531932002272784 0.02822021747709539
-0.9811291006692094 0.1914349314220035 0.02717268576126585
-0.9896795972701172 0.1406428708301101 0.0274568321538161
-0.9955498981559818 0.09005044867327261 0.02777259396160262
-0.9988783188296791 0.03832899755079542 0.02780273581402165
-0.9995230366076151 -0.01391665328415899 0.02756857000390156
-0.9974640818024669 -0.0657685753180535 0.0272011031870891
-0.9928177485681409 -0.1165903988448349 0.02682530568864503
-0.9854938250453197 -0.1676565403953756 0.02632879146862091
-0.9729589525457955 -0.2296471293466038 0.02476030379160104
-0.9595380763279371 -0.2806655704269561 0.02266092791111569
-0.9458848732468575 -0.3238011831749434 0.02132135871097266
-0.934812858737443 -0.3545027119889151 0.02127783662952901
0 0 0
0 0 0
0 0 0
0 0 0
0 0 0
0 0 0
0 0 0
0 0 0
0 0 0
0 0 0
0 0 0
0 0 0
0 0 0
0 0 0
0 0 0
0 0 0
0 0 0
0 0 0
0 0 0
0 0 0
0 0 0
0 0 0
-0.8747244282146982 0.4839076251552036 0.02627898401992471
-0.8904233513564737 0.4543132232727599 0.02730843310445918
-0.9131708881698329 0.4066011236399047 0.028186082627505
-0.9313191494047325 0.3630044205653022 0.02953697008993663
-0.9482448346819328 0.3160672153954886 0.03054912193786961
-0.9638412541992493 0.2646601591075662 0.03106504280981183
-0.9775005906152974 0.2085855263402364 0.03137950841091827
-0.9876667846071988 0.1532792730621537 0.03193410454692952
-0.9946815336521361 0.09777722205140262 0.03237686611370322
-0.9986010705013428 0.04172270423524262 0.03248257909818636
-0.9993740420888449 -0.0146474542518522 0.03220211301984762
-0.9969830060728869 -0.07090803310924308 0.03157430034771277
-0.99145451955319 -0.1268050329053113 0.03063363000748462
-0.9827379855646657 -0.1826676571866443 0.02930151440190036
-0.97052727791991 -0.2394311406761977 0.02737757636942912
-0.9561819134842767 -0.2916867533911248 0.02519893294748087
-0.9403010245527497 -0.3395367794498022 0.02342559766377871
-0.923067271865898 -0.3839899503048555 0.02232777810088007
-0.901435471953834 -0.4323825260218432 0.02143457707392224
-0.8863829350861137 -0.4624680009310783 0.02118113554410466
0 0 0
0 0 0
0 0 0
0 0 0
0 0 0
0 0 0
0 0 0
0 0 0
0 0 0
0 0 0
0 0 0
0 0 0
0 0 0
0 0 0
0 0 0
0 0 0
0 0 0
0 0 0
0 0 0
-0.8357338254292033 0.5484915016991164 0.02657151853616187
-0.857892114985066 0.5131004809273015 0.02736814788437756
-0.8795233288529726 0.474972083580643 0.02898678703216459
-0.9020433003427023 0.4305398251967095 0.03087625667776876
-0.9228246647144672 0.3838065290693651 0.03297251034357417
-0.9419390584757972 0.3339615150165514 0.03493589279777606
-0.9591238229232726 0.2806096941715833 0.03660180102094163
-0.9738606006109344 0.2239454522753536 0.03799953924584981
-0.9854127648724077 0.1656114042858189 0.03917327656700748
-0.9935532383820207 0.1060901429466121 0.03996053140495277
-0.9981442170920807 0.0457312728117645 0.04020911056778471
-0.9990926409496669 -0.01502124188045181 0.03985294333657538
-0.9963739748822767 -0.07567049446854621 0.03889573812356865
-0.9900370219274394 -0.1357581759484378 0.0373686081651305
-0.9801861859262134 -0.1949080019863801 0.0352974741461598
-0.9670163749070423 -0.2526007947991563 0.03274399377712321
-0.9511881966687531 -0.3071524200337759 0.02997341130801827
-0.9332078053948324 -0.3582939949679013 0.02736064911696266
-0.9133812017865587 -0.4063296194751104 0.02512012261421037
-0.891730453944297 -0.4519688547875994 0.02325837075728039
-0.8708203136640386 -0.4911102428724237 0.0219706771824124
-0.8495198771552745 -0.5271296689698812 0.02122004735597111
0 0 0
0 0 0
0 0 0
0 0 0
0 0 0
0 0 0
0 0 0
0 0 0
0 0 0
0 0 0
0 0 0
0 0 0
0 0 0
0 0 0
0 0 0
0 0 0
-0.7587978159688208 0.6507550567139679 0.02727142537799118
-0.7801486202963894 0.624965028353152 0.02805073234664731
-0.812675620281604 0.5820208591808559 0.02846147709252322
-0.8396281283707847 0.5423240954238104 0.0301526378832433
-0.8648407219854012 0.5009790336757985 0.032719006907795
-0.8893409849975726 0.4558436833723268 0.03576518884468991
-0.9124740937505862 0.4072680939412277 0.03903495730143655
-0.9338618382180299 0.3551290950079001 0.04225391104869847
-0.953060566987348 0.2993854902818667 0.04520933379779444
-0.9695227258822169 0.240300799573177 0.04776201128937831
-0.9826546348606523 0.178637753430267 0.04978374871646711
-0.9920421065987799 0.1150676319927966 0.05110673930730261
-0.9974034438814431 0.05025063988613055 0.05158723993848533
-0.9985765279249101 -0.01511580569599209 0.05115105370949256
-0.9955251136692812 -0.08031042863562549 0.04979942877309056
-0.9883420091720111 -0.1446195175671051 0.04759483211956157
-0.9772472111059599 -0.2073506751785482 0.04464959001629139
-0.9625999609208508 -0.2677851770382839 0.04113896199165371
-0.9449430997872293 -0.3250986094967736 0.03732870568029501
-0.9248098864726798 -0.3789500562501556 0.03351908039299725
-0.9026688968479667 -0.4292930934037118 0.02993831356549774
-0.8789541195364868 -0.4761575710357371 0.02671372859010321
-0.8543782984964871 -0.5191006472060945 0.02392156199877086
-0.8280918968661133 -0.5601827590392106 0.02142631139276846
-0.7965385090666258 -0.6042971367887611 0.01874497380157352
-0.7756589542489819 -0.6309110543045341 0.01744787235499613
0 0 0
0 0 0
0 0 0
0 0 0
0 0 0
0 0 0
0 0 0
0 0 0
0 0 0
0 0 0
0 0 0
0 0 0
0 0 0
-0.7098662861891991 0.7038577701538392 0.02596334196552129
-0.7359830100388995 0.6764509741039865 0.02725965091207469
-0.7624465350481159 0.6463961909830427 0.02910748143923475
-0.7916823811459168 0.6101256968041067 0.0313949276545381
-0.8200363980377621 0.5712656616053513 0.03458106076818546
-0.847594563532869 0.5292390766011438 0.03859346664778347
-0.8743970868500901 0.4832864449214153 0.04317344859163958
-0.9000013324689955 0.433232172416667 0.04803630228449482
-0.9238873720505402 0.3789930961167764 0.052880590592069
-0.9454651714740833 0.3206228906371525 0.05741577770054247
-0.9640843443455727 0.2584078934117404 0.06137375343152174
-0.9790899417175537 0.1929312979303366 0.06450116515561884
-0.9899297087484669 0.1249341052609023 0.06656306092595625
-0.9961951386394302 0.05527415090590883 0.06737962594728854
-0.9976480021882854 -0.01510764968402601 0.06685972368135269
-0.9942375262586161 -0.08523446822366387 0.0650140508334633
-0.9861040163038594 -0.1541460154607078 0.06195058471866381
-0.9735681191470692 -0.2209458859574732 0.05786218850773496
-0.9571091442339063 -0.2848360960885899 0.05301400181886334
-0.9373296430500251 -0.3451600682384098 0.04772491543594427
-0.9148608009876231 -0.4015452616655261 0.04232159791699959
-0.8903092578203805 -0.4538440088906417 0.03708154572552048
-0.8642431568106821 -0.5020424310866282 0.03220501971019949
-0.8371790920509522 -0.5462211200171598 0.02781467022889872
-0.809193526647397 -0.5870540655836969 0.02394494755893195
-0.7803121907549997 -0.6250487127498301 0.02066377625006937
-0.754111829907993 -0.6564846501196049 0.01852706534120795
-0.7285035275262155 -0.6848153119352354 0.01762381686542335
0 0 0
0 0 0
0 0 0
0 0 0
0 0 0
0 0 0
0 0 0
0 0 0
0 0 0
0 0 0
0 0 0
-0.6543529771061992 0.7557744283824082 0.02504385664184862
-0.6822368001694458 0.7306577353621885 0.02631011687457037
-0.7099578556285834 0.7036632451453817 0.02859861295121462
-0.7383616691207514 0.6736548659629464 0.03179885434511723
-0.7679528550869732 0.6395010999343396 0.03587137502989204
-0.7977625261566654 0.6015827199756731 0.04090455826440007
-0.8274414643370984 0.5595964189064079 0.04682382986046234
-0.8566727645815322 0.5130879725760018 0.05340886463951813
-0.8849425481700964 0.461772738364168 0.06035415927567346
-0.9116081662035134 0.4055138040944427 0.06729863297215555
-0.9359294749971286 0.3443575915783717 0.07385030097394224
-0.9571030261396155 0.2785971046053774 0.0796081067473033
-0.9743247917065644 0.2088161193835476 0.0841844911581428
-0.9868797380340658 0.1358598195358592 0.08723813439945188
-0.9942180152336 0.06078781862347309 0.08851767785002201
-0.9960134268996407 -0.01519445930779403 0.08789983982907516
-0.9921978213103574 -0.0908233253859211 0.08540847120059242
-0.9829660505171904 -0.1648711333377971 0.08121116254891073
-0.9687510477159031 -0.2362339190188069 0.07559724237268824
-0.9501737942074704 -0.3040009300618731 0.06894342117196749
-0.9279748518723493 -0.3675042928606881 0.06167064959489336
-0.9029318762251231 -0.4263531974494251 0.05419389191809453
-0.8757982906584628 -0.4803956321683662 0.04687633382923415
-0.8472656105783043 -0.5296609269066999 0.04000359533477264
-0.8179268291932275 -0.5743296379783411 0.03378119337116028
-0.7882039476899542 -0.6147606056148337 0.02835374102396844
-0.7585551839506595 -0.6511714260694065 0.02387062572108526
-0.7300408530630825 -0.6830943359734051 0.02055434309285975
-0.7023624153872129 -0.7115803678644925 0.01845040707607357
-0.6749228109388971 -0.7376825787307295 0.01742447449761451
0 0 0
0 0 0
0 0 0
0 0 0
0 0 0
0 0 0
0 0 0
0 0 0
0 0 0
-0.5981151256081733 0.8010563977707872 0.0238105881743552
-0.624603606784117 0.7805336462412988 0.0252499797531554
-0.6518938542684147 0.7578046254810041 0.02768668211731052
-0.6802581004381661 0.7323040397502619 0.03130032194249455
-0.7097810043250058 0.7034956467546101 0.03612202785971653
-0.7404547467099744 0.6707832255996717 0.04215011659256324
-0.7718845295301405 0.6338429944270694 0.04936933752602819
-0.8037082837148006 0.5922227021776141 0.05766511695690794
-0.8354934560357065 0.5454251863766706 0.06679858522067895
-0.866641459844274 0.4930446973129023 0.07641666395894009
-0.8963887532884598 0.4348325481078852 0.08606891473676244
-0.9238314379377099 0.3707648237977215 0.095230875834401
-0.9479716598561738 0.3011165494079475 0.1033370978021983
-0.9677952990016321 0.226517547651552 0.1098274093123742
-0.9823772322577089 0.1479585170450673 0.11420705221442
-0.9909908200070532 0.06674577253865004 0.1161128610876779
-0.9932003112332241 -0.01559481162775182 0.1153687289369232
-0.9889165550582613 -0.09745163121765663 0.1120144040055478
-0.9784037924802569 -0.1772748825540057 0.1062997407132933
-0.9622370277335336 -0.253709860466324 0.09864689128752413
-0.9412212661787049 -0.3256932143196576 0.08959050306301675
-0.9162912816924796 -0.3925006584679186 0.07970897187018929
-0.8884120090828022 -0.453746223901727 0.06955908576442169
-0.8585010432987794 -0.5093336035690714 0.05962582435699047
-0.8273775567750663 -0.5593896321189813 0.05029530815803464
-0.7957301576580538 -0.6042035486052879 0.04185197780590293
-0.7641068642639401 -0.6441666632128902 0.0344965214173699
-0.7329991360403566 -0.6796373185282965 0.02837924995056835
-0.7029430480525291 -0.7108538600065809 0.02361907932929114
-0.6741295580513106 -0.7383352938498788 0.02025667339809454
-0.6466791618879156 -0.7625430826863721 0.01827863854631254
-0.6205386067510555 -0.7839762994455217 0.01769179016278035
0 0 0
0 0 0
0 0 0
0 0 0
0 0 0
0 0 0
0 0 0
0 0 0
-0.5705356590873127 0.820909156309734 0.02443806041086927
-0.5915201870457844 0.805851492122948 0.02659400234146808
-0.6178282615975237 0.7857321281911538 0.03022022335425631
-0.6464602787106896 0.7621279151565182 0.03535744601177544
-0.6767814804420124 0.7349816689899428 0.04205679468856068
-0.708592446284389 0.7038206001727939 0.05033197632830163
-0.7416432744012403 0.668093036283253 0.06014107086866478
-0.7756089696837261 0.6271691247703061 0.07134153825785175
-0.8100258693982214 0.5803960237194234 0.08365731621524282
-0.8442315784519629 0.5271897591517359 0.09666436670273706
-0.8773461624165908 0.467128983821429 0.1097917290456778
-0.9082874173287009 0.4000583847683754 0.1223407385087901
-0.9358238490973211 0.3261962076627496 0.1335281152683361
-0.958672401225741 0.2462210304421689 0.1425567651711688
-0.9756362394473383 0.1613041266481567 0.1487108166991581
-0.9857594647209003 0.07306365974784117 0.1514594973496712
-0.9884644020973902 -0.01656548807571682 0.1505447122653643
-0.983636185203101 -0.1055272878802532 0.1460268696909172
-0.9716318257601794 -0.1918637171904468 0.1382747597929718
-0.953213150546275 -0.2739080013173544 0.1279026834744918
-0.9294249104646264 -0.3504125691332174 0.1156735371693916
-0.9014515088073062 -0.4205957925392314 0.1023931470720879
-0.8704848484221593 -0.4841150676849558 0.0888185223241218
-0.8376254129850936 -0.5409890610658702 0.07559433397165896
-0.8038221997561275 -0.5915004787995278 0.06322226474232923
-0.7698467342162888 -0.6361020485910606 0.05205948131483822
-0.7363000036473096 -0.6753294054650596 0.04233791141731279
-0.7036618934740891 -0.7097117351899741 0.03419345852784285
-0.6723504670493893 -0.7397148549955241 0.02769084248299403
-0.6427502608696077 -0.7657352829595099 0.02283809499432566
-0.6156881107536115 -0.787745326745096 0.01963289249982775
-0.5943303752690782 -0.8040164612336543 0.01813656797268497
0 0 0
0 0 0
0 0 0
0 0 0
0 0 0
0 0 0
0 0 0
-0.4911416407478307 0.8707111431269853 0.02533759968952517
-0.5247394447825167 0.8508642270219365 0.02604961158439164
-0.5515483630348703 0.8336409390045745 0.02893420206477917
-0.5789890188073124 0.8146331525755829 0.03383109258230131
-0.6080789615420659 0.7928332073325114 0.0406876133579402
-0.6389992243692385 0.7676103929109414 0.04954064947718584
-0.6717649525961142 0.7382962479885162 0.06041935674615417
-0.7062645403954163 0.7041442762817808 0.07328872464204841
-0.7422441464616785 0.6643266833424099 0.08799820931500391
-0.7792564200931134 0.6179759844591259 0.1042358593548241
-0.8166031633390211 0.5642682094555117 0.121493462468456
-0.8532995357162625 0.5025387586391118 0.1390492661320825
-0.8880749310215477 0.4324275197624217 0.155978707018595
-0.9194267100981801 0.354038415395388 0.1712055057010705
-0.9457399440404602 0.2680791700718007 0.1836015163879671
-0.9654707186645292 0.1759321006889515 0.1921306517674095
-0.9773644377536996 0.07961055184540954 0.1960125400306405
-0.9806573093425478 -0.01841798769756392 0.1948641048582477
-0.9752026185831634 -0.1155158967491684 0.1887748137511355
-0.9614826761411206 -0.2091982738054627 0.1782894997393933
-0.940505691994081 -0.2974105228693445 0.1643046688725462
-0.9136246640275183 -0.3786975220310351 0.1479126772395027
-0.8823336961353576 -0.4522443667562356 0.1302393235600101
-0.8480908576901858 -0.5178106922847955 0.1123119942742767
-0.8121952386033725 -0.5756025120625951 0.09497706300597243
-0.7757222967062231 -0.6261269148502454 0.07886700763269261
-0.7395076903302246 -0.6700598429081468 0.06440638838163219
-0.7041670895101434 -0.7081392307019471 0.05184148909577574
-0.6701401896990311 -0.7410858057817753 0.04127898519734659
-0.6377342895395285 -0.7695611146045123 0.03272104573776011
-0.6071389150830889 -0.7941673069519135 0.02608881677030191
-0.578392896638573 -0.8154821205176137 0.02122659261720005
-0.5507518984789619 -0.8344784536139831 0.01783414634441567
-0.5173185108216676 -0.8556557296771118 0.015324184545396
0 0 0
0 0 0
0 0 0
0 0 0
0 0 0
-0.4250846037749532 0.9048308631900358 0.02416999487515331
-0.454093898778231 0.8905947402626099 0.02529307630478132
-0.4819788341273412 0.8757493774665108 0.02755778148303665
-0.5085775856901079 0.8604284537085634 0.03180747368639329
-0.5359227142983658 0.8433983739418245 0.0382887337392852
-0.5649392675184978 0.8237856093727254 0.04712635999172921
-0.5960204536541031 0.8008399313484416 0.05843819969660303
-0.6293397624242935 0.7737585414476534 0.07231308988373666
-0.6649152127776733 0.741626132862964 0.08876057047781022
-0.7025899399295192 0.7034049823735528 0.1076513217842494
-0.7419732464313706 0.6579695221419228 0.1286538359802051
-0.7823678634845717 0.6041909621692179 0.1511747578784928
-0.8227084409783988 0.5410774557857944 0.1743158282637107
-0.8615379139256264 0.4679697750792326 0.1968672458307158
-0.8970521481369358 0.3847743247413006 0.2173618240234109
-0.9272397726605204 0.2921855273320071 0.2342093542414193
-0.9501223612493234 0.1918218342389741 0.2459103140643052
-0.9640602112439299 0.08619502767674747 0.2513132035928738
-0.9680463121763303 -0.02152926997877267 0.2498456083584163
-0.9618940712388001 -0.1279457384591816 0.2416395740059567
-0.9462529810271494 -0.2298862643287291 0.2275029700250396
-0.9224515340709843 -0.3248192335541099 0.2087477731699375
-0.892230449789433 -0.4110700772554449 0.1869390704313791
-0.8574559814888755 -0.4878416504373322 0.1636452379616607
-0.819886435987257 -0.5550823088182993 0.1402492870607857
-0.7810257402212146 -0.6132792967023484 0.1178443776689238
-0.742061901437081 -0.6632459573052566 0.09720563025780392
-0.7038686827645064 -0.7059441335696679 0.07881470485847851
-0.6670453499737775 -0.7423561203326396 0.06291177698198877
-0.6319717592299234 -0.773405490882052 0.0495544368278663
-0.5988561605015967 -0.7999224527393159 0.03866999654515365
-0.5677507940454197 -0.822650232277234 0.03009370690041332
-0.538491721337211 -0.8423005191677038 0.02359028319252722
-0.5104000995885073 -0.859730077827027 0.01886615009945465
-0.4817046658520827 -0.8761939059786318 0.01564781205923306
-0.4526518115466112 -0.8915764669857438 0.01406204184281653
0 0 0
0 0 0
0 0 0
0 0 0
-0.3945894924032856 0.9185502710496813 0.02375988298526391
-0.4138626770355865 0.9099768543379341 0.02568675001192917
-0.4373692738946691 0.8988036481400116 0.02932780835751917
-0.4622083701638804 0.8860755980352379 0.03512060815167987
-0.488512977243508 0.8714761373406512 0.04340982734936386
-0.5167781106453796 0.8543849838968426 0.05446727135980975
-0.5474040804450189 0.8340577177039961 0.06853098752056641
-0.5806687786904626 0.8096070101037285 0.08579194976818728
-0.6167170521915276 0.7799682762777427 0.1063464411088527
-0.6555153189590309 0.7438863278566556 0.1301260843873347
-0.6967729316229849 0.6999411284878115 0.1568116654101964
-0.7398426830396787 0.6466324598630468 0.1857397808874386
-0.7836225506775083 0.5825437814402278 0.2158203900816495
-0.8264929215753323 0.5065972701848808 0.2454967544125538
-0.8663365486542081 0.4183852138582635 0.2727907573410237
-0.9006898394885596 0.3185157815594575 0.295475058066904
-0.9270481518383823 0.208857561666046 0.3113843976630052
-0.9432869899755741 0.09254494419250266 0.3188182677439087
-0.9480867386494413 -0.02634286939933422 0.3169189000815114
-0.9412101076551455 -0.1433873045002194 0.305881699609425
-0.9235229167405635 -0.2545379415166579 0.286907404197703
-0.8967576817528204 -0.3566865491657326 0.2619167155061846
-0.8631256997372029 -0.4479476942303542 0.2331456405058264
-0.8249207808675563 -0.5276292907638237 0.2027634997254799
-0.7842203599976377 -0.5959906655804051 0.1726080922384585
-0.7427214925784836 -0.6539196079923465 0.1440622460782999
-0.7016947248057558 -0.7026306820433217 0.1180450669494928
-0.662015545409804 -0.7434356691978281 0.09507272689965547
-0.6242333961649023 -0.7775958993270221 0.07534775684936533
-0.5886485194413156 -0.8062441855296476 0.05884924688712127
-0.5553762822683773 -0.8303584608647844 0.04540937748991743
-0.5243864404170606 -0.8507701027773137 0.03477201931155723
-0.4955142097561874 -0.8681912953677337 0.02663724042383865
-0.4684905679740105 -0.8832257951338962 0.02070706472402882
-0.4433888919412491 -0.8961725047263386 0.01676699960134466
-0.4232494002049491 -0.9058920380282098 0.01481757953399065
0 0 0
0 0 0
0 0 0
-0.3159209054222931 0.9485233564473777 0.02230299959554578
-0.3454296017745073 0.9381467146692353 0.02364597160670503
-0.3670968687727234 0.9298046089492613 0.02651939128208513
-0.3888942145288287 0.9207457648228887 0.03144084074445379
-0.4118710428911163 0.91041563154341 0.03880234360444636
-0.4365241702107292 0.8983567429558439 0.0490082769295284
-0.4633359250426973 0.8839795121641544 0.06245032136707227
-0.4927509467871954 0.8665311281572219 0.0795003671368512
-0.5251484206582689 0.8450573149479466 0.1004851766833904
-0.5608075684221475 0.8183590120171668 0.1256319969224581
-0.5998449134498561 0.7849625829692385 0.1549832995731972
-0.6421158625642279 0.7431267559689946 0.1882812885190539
-0.687084436031434 0.6909174731959953 0.2248288749156276
-0.7336791099382601 0.6263885636495466 0.2633483073218044
-0.7801745764049218 0.5479005570156361 0.3018817814200709
-0.824164909850956 0.4545771667963077 0.3378043824431626
-0.8627081073354469 0.346827098690093 0.3680294623422191
-0.8926964297330886 0.2267622755789478 0.3894508373544129
-0.9114207980306118 0.09828131791415068 0.3995659037834682
-0.9171727711801801 -0.03335220148827529 0.3970915995857298
-0.9096492225641285 -0.1623938440203699 0.3823173175684876
-0.8899807294775218 -0.2836678290281446 0.3570250186375129
-0.8603833518257776 -0.3933884582580554 0.3240154453269005
-0.8236070341212606 -0.4895023287607221 0.2864592876549997
-0.7824029642727021 -0.5715575327029642 0.2473208206111813
-0.7391565892818442 -0.6402868882638019 0.2089981752042058
-0.6957193094270696 -0.6971215066424139 0.1731942477882327
-0.6533950704875326 -0.7437787986957083 0.1409538239047121
-0.6130147375911049 -0.7819797371186072 0.1127857359421937
-0.5750422937234525 -0.8132893406815828 0.088807706664378
-0.5396775972466165 -0.8390493869350877 0.06887827897074314
-0.5069384855093398 -0.860369617793274 0.05270192299861334
-0.4767168718797125 -0.8781506080144204 0.03990656223135342
-0.4488139614096309 -0.8931181441898079 0.03009997612535788
-0.4229733548332483 -0.9058523780441136 0.02291310308384763
-0.3989136261691585 -0.9168112822869448 0.01802752140312667
-0.3758205510089953 -0.9265688334575984 0.01513639006896156
-0.3461080745725853 -0.938092872845976 0.0138189229406767
0 0 0
0 0 0
-0.2852125575938763 0.9582181375036433 0.02172091042770594
-0.3004320591125826 0.9535062830508465 0.02379802596712262
-0.3180867485904908 0.9476575655504982 0.02767596115824696
-0.3371097749043055 0.9408577946957069 0.0338173006654689
-0.3576090423638834 0.9328943036431326 0.04270820822488577
-0.3799224143214205 0.923391011117199 0.05484523392364157
-0.4044933569459483 0.9118009358861097 0.07074021136391456
-0.4318011314568918 0.8973756369357712 0.09091066552757462
-0.4623151249404989 0.8791154076012754 0.1158482860006725
-0.4964476755791258 0.8557082082298256 0.1459560474258728
-0.5344816831924381 0.8254737611864004 0.1814453083564159
-0.5764579899125212 0.7863394257136298 0.2221857183402516
-0.6220170304545153 0.7358900460324395 0.2675082316021695
-0.6702058747065698 0.6715505703515738 0.3159808807021035
-0.7192909943032133 0.5909647730740262 0.3652137764376624
-0.7666593626744485 0.4925997844959618 0.4117995555341698
-0.8089264757523312 0.3765061048102741 0.4515319588550818
-0.8423562606895039 0.2449991992623526 0.4800117940613563
-0.8635855534601978 0.1028902217540061 0.4935925385601511
-0.8704497224807226 -0.04305194878838773 0.4903710945179726
-0.8625577776823231 -0.1853809992423555 0.4707737941725701
-0.8413333321686428 -0.3175194253972822 0.4374238661497417
-0.8095202557155593 -0.4349194497234595 0.3943628124436405
-0.7704261751509973 -0.5354534440876928 0.3460247359031317
-0.7272353971819041 -0.6190991082906134 0.296386523309419
-0.6825826553762609 -0.6872610080587359 0.2485019625306456
-0.6384019700949944 -0.7420676949009993 0.2043978002894028
-0.595964923430532 -0.7858343024625561 0.1651976365255482
-0.55600855891632 -0.8207342621716003 0.1313383162273509
-0.5188814370537415 -0.8486437901891825 0.1027899394609329
-0.4846710010587494 -0.8711000548511373 0.07923834407062477
-0.4532997486593926 -0.8893215849716526 0.06022006616434855
-0.4245925814782185 -0.9042547679450893 0.0452156433354016
-0.3983270448748737 -0.9166237137506585 0.03371250081498695
-0.3742879380174158 -0.9269687411226751 0.0252486125581794
-0.3523511195475824 -0.9356658864543179 0.01944318593286406
-0.3326246666286216 -0.9429233472608097 0.01601225595186553
-0.3163768325385581 -0.9485193004735833 0.01472536797408953
0 0 0
0 0 0
-0.2420922719702852 0.9700001096273825 0.02216120879217712
-0.2522490093211173 0.9673510582002042 0.02454317614856408
-0.2662095595798897 0.9634749028802252 0.02913042924882785
-0.282088099427593 0.9587007047544014 0.03632165834239394
-0.2995643435133616 0.9529360417403302 0.04662729294822463
-0.3188414584343686 0.945867650072472 0.06061776084469009
-0.3403272711741376 0.9369892920084802 0.07892030889835075
-0.3645214070525032 0.9255690379988976 0.1022061627215207
-0.391960979577006 0.9105848899745388 0.1311554369406406
-0.4231721653719596 0.8906404704229313 0.1663877125848718
-0.4585984867241202 0.8638754129077741 0.2083427439287703
-0.4984844374535382 0.8278983811858034 0.257094410764908
-0.5427000772974504 0.7797939363002671 0.3120865953716623
-0.5905069367970838 0.7162852119048672 0.371802437863072
-0.6402994133932985 0.6341568850212482 0.4334301632193407
-0.6894136085900016 0.5310195734217115 0.4926734100130988
-0.7341616187308161 0.406370031927005 0.5439394403186737
-0.770262806216772 0.2626461025850909 0.5811301353018312
-0.7937162862798314 0.1057045479694603 0.5990333925856922
-0.8018749914027273 -0.05583705731277911 0.5948770639329819
-0.7942275761322041 -0.2124221669367627 0.5692797030503136
-0.772461820625874 -0.3557945346782592 0.5260351554491777
-0.7398036566879549 -0.4806032710141611 0.4708620237836331
-0.7000361622603049 -0.5848018907676737 0.4098244991242193
-0.6566632269163858 -0.6690327462113664 0.3481215174513579
-0.6124486442011284 -0.7355838723662631 0.2895220629431411
-0.5693069046527188 -0.7874218384182344 0.2363397907606491
-0.5284064903721895 -0.8275270658656039 0.1896985403012074
-0.4903522381233013 -0.8585399473320863 0.1498794228788162
-0.4553654532060232 -0.8826317963852839 0.1166336831115228
-0.4234276888031974 -0.9015059531548212 0.08942040472509252
-0.3943833284005017 -0.9164584959022478 0.06756933896621201
-0.3680099294988912 -0.9284557431013064 0.05038476845655894
-0.3440735344353991 -0.9382051371450849 0.03720918617362912
-0.3223955811533113 -0.9462065701759075 0.0274629898001572
-0.3029835625100216 -0.9527715168029364 0.02067359711725908
-0.2863736365270222 -0.9579758914102727 0.01650247796487963
-0.2747062095561536 -0.9614154023019641 0.01472829412533166
0 0 0
0 0 0
-0.1912000351760089 0.9812768413019153 0.02320144980875287
-0.199851284809247 0.9794916783697443 0.02560304600069981
-0.2111987132371939 0.9769619359503684 0.03066723383452443
-0.2239587341865105 0.9738287451143142 0.03873061541797997
-0.2380089181533652 0.9699601748677749 0.05028930353404679
-0.2536040583101294 0.9650559613803057 0.06596948546840188
-0.2711606625914469 0.9586387824806191 0.0865076862888086
-0.2911885640706729 0.950000467431985 0.1127312380552483
-0.314258991388105 0.9381176130863363 0.1455219239459295
-0.3409708432692524 0.9215411000353516 0.1857441384967183
-0.3718917405205864 0.8982689238771906 0.234114232222396
-0.4074521829286513 0.8656281135646902 0.290982280617071
-0.4477716729122212 0.8202227342155705 0.3559988696798403
-0.4924054084578355 0.7580518992332168 0.4276613517613957
-0.5400316998215057 0.6749505858582205 0.5027996318987707
-0.5881682045260394 0.567507007120698 0.5761891703716085
-0.6331008384451026 0.4344681127651593 0.6406409191976331
-0.6702655602172592 0.2782778997485099 0.687972012002088
-0.6952046231284025 0.1059231211920714 0.7109647138767329
-0.7048547602511021 -0.07183067990651054 0.7057054062252386
-0.6985378959384539 -0.242955061998597 0.6730658554607679
-0.6780655032359088 -0.3973038212320328 0.6183662724921679
-0.6469351572933606 -0.5287570441734456 0.5494459850565614
-0.609161280024381 -0.6355569365069089 0.4743310187801447
-0.568335427817828 -0.7192526425719171 0.3995878847518273
-0.5271683038521252 -0.7831949060634309 0.3296957969552632
-0.4874384898189267 -0.8312774972879321 0.2671730546775913
-0.4501559751680279 -0.8671632793374977 0.2130432936967463
-0.4157836102338366 -0.8939349610748222 0.1673447783143297
-0.3844338800605496 -0.9140177391971543 0.129545992969728
-0.356014976937091 -0.9292386858417793 0.09883724465769397
-0.3303286467329714 -0.9409358043674095 0.07431552467028067
-0.3071334970831893 -0.9500704343735124 0.05509251036915491
-0.2861903869588985 -0.9573226918231531 0.04035252325180095
-0.2673110432449186 -0.963162290292358 0.02938041385161431
-0.2504484783365569 -0.9678895418854659 0.02157300182276935
-0.2359453260161352 -0.9716271130196955 0.01644859799955253
-0.2253855624203831 -0.9741731869564241 0.0137094882329988
0 0 0
-0.0995253835363536 0.9947701021973679 0.02295956894584181
-0.1295061997626072 0.9912975704754822 0.02360658790366228
-0.1431657584957056 0.9893476539649315 0.02635877820451345
-0.1533743697012065 0.9876518559939657 0.03193922463729958
-0.1631446203789139 0.9857594333333611 0.04076974902682406
-0.1734344317846876 0.9833967640868859 0.05339758660242406
-0.1847679399816461 0.9802486275979717 0.07052259529562876
-0.1976099644499549 0.9758601893683676 0.09299028312689767
-0.2124604872028898 0.9695517173448326 0.121778523439873