# OOMMF: rectangular mesh v1.0
# Segment count: 1
# Begin: Segment
# Begin: Header
# Title: 
# Desc: time = 3.16e-09
# Desc: stepsize = 2.9557731491242934e-14
# Desc: step = 20222
# meshunit: m
# valueunit: (none)
# valuemultiplier: 384000.0000000001
# xmin: 0
# ymin: 0
# zmin: 0
# xmax: 9.357999999999999e-08
# ymax: 9.357999999999999e-08
# zmax: 2.3395e-08
# ValueRangeMaxMag: 1
# ValueRangeMinMag: 0
# meshtype: rectangular
# xbase: 1.16975e-09
# ybase: 1.16975e-09
# zbase: 1.16975e-09
# xstepsize: 2.3395e-09
# ystepsize: 2.3395e-09
# zstepsize: 2.3395e-09
# xnodes: 40
# ynodes: 40
# znodes: 10
# End: Header
# Begin: Data Text
0 0 0
0 0 0
0 0 0
0 0 0
0 0 0
0 0 0
0 0 0
0 0 0
0 0 0
0 0 0
0 0 0
0 0 0
0 0 0
0 0 0
0 0 0
0 0 0
-0.9865461609660148 0.1628192823363338 0.01471575967114308
-0.9912012444149152 0.1314296494742388 0.01569523205950622
-0.9958977751197242 0.08900472310900964 0.01630278429812411
-0.9989681814633973 0.04230098742001987 0.01652872914061996
-0.9998473682981788 -0.005606290650112644 0.01654719348869426
-0.9984864215463555 -0.05243544690648183 0.01659487557262718
-0.9953287590644335 -0.09504473715555127 0.01694577582427019
-0.9918029374074779 -0.1265341921091391 0.01777727699018149
0 0 0
0 0 0
0 0 0
0 0 0
0 0 0
0 0 0
0 0 0
0 0 0
0 0 0
0 0 0
0 0 0
0 0 0
0 0 0
0 0 0
0 0 0
0 0 0
0 0 0
0 0 0
0 0 0
0 0 0
0 0 0
0 0 0
0 0 0
0 0 0
0 0 0
0 0 0
0 0 0
0 0 0
-0.9272583193429516 0.3740435754948631 0.01683486977386474
-0.9386174603599111 0.344488925723126 0.0180178567437124
-0.952792857301853 0.30305958569546 0.01845693887584069
-0.9670473410098334 0.2539601284739576 0.01799148107582058
-0.9808783033069171 0.193867551856832 0.01712093568650846
-0.9893624191742956 0.1444067235483375 0.01756990949376745
-0.9953001701880204 0.09513406187981564 0.01808539449237088
-0.9988294633831412 0.04475107371896104 0.01835877116655481
-0.9998114524246392 -0.006173011007378991 0.01841069079736028
-0.9982185049620562 -0.05676720804706672 0.01836574098308521
-0.9941505734570069 -0.1064343239491414 0.0183404465756253
-0.9875189702387173 -0.1564417586698332 0.01822798845053135
-0.9759728346745387 -0.2172154048714683 0.01716082351955476
-0.9634950616325041 -0.2672743722974025 0.01554593589354028
-0.9507283344767189 -0.3096797749598078 0.01463116550267343
-0.9403389765449163 -0.339913555302744 0.01487898222013983
0 0 0
0 0 0
0 0 0
0 0 0
0 0 0
0 0 0
0 0 0
0 0 0
0 0 0
0 0 0
0 0 0
0 0 0
0 0 0
0 0 0
0 0 0
0 0 0
0 0 0
0 0 0
0 0 0
0 0 0
0 0 0
0 0 0
-0.8776044862160041 0.4791273752133692 0.01572654109111277
-0.8927828629796855 0.4501749492478362 0.01677124442324058
-0.9147841207473724 0.4035578453127139 0.01763740102781354
-0.9323746071905019 0.3609957907457982 0.01896393762309967
-0.9487956821836355 0.3152591547239319 0.0199604316697097
-0.9639621113404426 0.2652495327692684 0.02048739284927173
-0.9773217717497296 0.2107297294010134 0.02085990437525726
-0.9873721402331171 0.1569497686087161 0.02151805811739526
-0.9944387858543404 0.1029655766092587 0.02212670834235782
-0.9985744781156805 0.04841700437018176 0.02246787359350911
-0.9997259401408157 -0.006489925809887842 0.02249278712262952
-0.9978673577532025 -0.06137016789152422 0.02223598038333304
-0.9930112259683693 -0.1160029311346761 0.02172613792092749
-0.9850976136957101 -0.1707237737762426 0.02088263773126406
-0.9738319818742874 -0.2264304626782078 0.01950683598459605
-0.9604705037996315 -0.2778068531453374 0.01788193715363557
-0.9455760832287442 -0.3249754344496221 0.01663844434032554
-0.929317189812245 -0.3689339434885059 0.01604076249718641
-0.9088363818945553 -0.4168578863118416 0.0156822691099702
-0.8945633764677877 -0.4466628441394433 0.01576924690067254
0 0 0
0 0 0
0 0 0
0 0 0
0 0 0
0 0 0
0 0 0
0 0 0
0 0 0
0 0 0
0 0 0
0 0 0
0 0 0
0 0 0
0 0 0
0 0 0
0 0 0
0 0 0
0 0 0
-0.8399283000765829 0.5424604202909757 0.01603568359001794
-0.8613376811111547 0.5077559053481283 0.01677318342357187
-0.8822593189169976 0.4704084787952485 0.01828543851417029
-0.9040434817550785 0.4269708369480962 0.02003216144095733
-0.9241642189602796 0.3813629849430137 0.02197203014950656
-0.942692066844205 0.3328147694016934 0.0237906783656608
-0.9593901514908165 0.2809413958545805 0.02534697847293648
-0.9737838650144214 0.225903533668832 0.02669415129779927
-0.98517603590261 0.1692631316574024 0.02789570835715861
-0.9933511892621532 0.1114611519338749 0.02880670757027335
-0.998175221419303 0.05280778982245026 0.02928420527507646
-0.9995518944546259 -0.006299946831275754 0.02926296229179722
-0.9974442163333083 -0.0654142277705048 0.0287404611727231
-0.9918797347283141 -0.1241180179763085 0.02773642819328867
-0.9829368668360648 -0.1820588768107734 0.02626178190640192
-0.9707816997261385 -0.2387249281712591 0.02435775331298654
-0.956019226807481 -0.2924584793324415 0.02225479366298376
-0.9391168018117797 -0.3429977452195247 0.02030220010580758
-0.9203584099733787 -0.3906285074356694 0.01870204186325363
-0.8997769811460883 -0.436000774113373 0.01745592083423323
-0.8798239413861875 -0.4750062357078617 0.01670054497079063
-0.8594715231702215 -0.5109202904556325 0.01640602511856794
0 0 0
0 0 0
0 0 0
0 0 0
0 0 0
0 0 0
0 0 0
0 0 0
0 0 0
0 0 0
0 0 0
0 0 0
0 0 0
0 0 0
0 0 0
0 0 0
-0.7657280201478758 0.6429417327182506 0.01692712289987299
-0.7863521793660438 0.6175266033492252 0.01763927896035839
-0.8177253815444069 0.5753305688655941 0.01788678022578858
-0.8437739405527641 0.5363494792678353 0.01935906333431121
-0.8681556992565422 0.4958194814091332 0.02165002779586771
-0.8918483928608741 0.4516769581092971 0.02437969779565778
-0.914225087250267 0.4042847532700166 0.02731900649078177
-0.9349320880600842 0.3535370221926517 0.03022523208782482
-0.9535622156587589 0.2993918157830366 0.03291871063839438
-0.9696135348131834 0.2420825353854974 0.03529361370577468
-0.9825344148296234 0.1823140273579955 0.03725210200669326
-0.9919367898356508 0.120696202413875 0.03865011893141348
-0.9975507194569189 0.0578237864486828 0.03935697945371643
-0.9992113623382486 -0.005674776720277042 0.03929949469542749
-0.9968646764382042 -0.06914470099893062 0.03846852211253581
-0.9905720296198494 -0.1319278694125014 0.03690652255482708
-0.9805122242229333 -0.193369580739146 0.03469846385883543
-0.9669973512326078 -0.2527705839381498 0.03198678797077234
-0.9505170560578026 -0.3093157916510889 0.0290011582263175
-0.9315596154208773 -0.3626569575268398 0.02601180644020793
-0.9105615825613063 -0.4127204304688188 0.02322607666141416
-0.8879408241113048 -0.4594891303559315 0.02075649202746801
-0.864391826228724 -0.5024723561273842 0.01866285285711464
-0.8391388585508913 -0.5436569651868193 0.01682498956208378
-0.8088483566320571 -0.5878306181058554 0.01481554558255137
-0.7887774545786477 -0.614521014368226 0.0139301847897079
0 0 0
0 0 0
0 0 0
0 0 0
0 0 0
0 0 0
0 0 0
0 0 0
0 0 0
0 0 0
0 0 0
0 0 0
0 0 0
-0.7183902592367231 0.6954604793425574 0.01581635566157187
-0.7436767476250477 0.6683234991947293 0.01698809777295477
-0.7693077689094084 0.6386066070473208 0.01863217998884398
-0.7975899640835804 0.6028478127666863 0.0206097995035124
-0.8250217596829441 0.5646165997798589 0.02339212052569279
-0.8516763348068025 0.5233761140261203 0.02692329840432744
-0.8775860819084381 0.4784177159308071 0.03097027484775567
-0.9023308164080494 0.4295976940282952 0.03528341035038975
-0.9254267215007679 0.3768514096541702 0.03960300713335613
-0.9463320140190544 0.3202302395506367 0.04368424109426133
-0.9644517116499772 0.2599905166780406 0.04730567759703316
-0.9791833942952495 0.196657394451298 0.05025683579434862
-0.9900139265645287 0.1308944722513459 0.05233605203227655
-0.9965550719545164 0.06346927804289627 0.05338201294857719
-0.9985668966669436 -0.004772676459120153 0.0533045442750008
-0.995974329934214 -0.07294486162948552 0.05209780488608145
-0.9888735589858961 -0.1401614327360542 0.04983830968184667
-0.9775272567801494 -0.2055765816124663 0.04667688233385414
-0.9623502517685342 -0.2684165879111733 0.04283139333668463
-0.9438809782694229 -0.3280255215326226 0.03857403381042641
-0.9226958502352947 -0.3840094862942486 0.03419184690234963
-0.8993614768842124 -0.4361799621727044 0.02993283307116027
-0.8744237665627188 -0.4844669729513509 0.02597746310982387
-0.8483955773626448 -0.5288870733668771 0.0224367541530315
-0.8213873854875563 -0.5700425488048484 0.01934568463477673
-0.7934723976991516 -0.608375110250803 0.01677138386901904
-0.7680966475345988 -0.6401532542173756 0.01521023211571527
-0.7433087577170716 -0.6687852185579405 0.01477911159410033
0 0 0
0 0 0
0 0 0
0 0 0
0 0 0
0 0 0
0 0 0
0 0 0
0 0 0
0 0 0
0 0 0
-0.664668823974915 0.7469848509034113 0.01513231497858969
-0.6916979389504408 0.7220038806465278 0.01625907694384995
-0.7186210823384818 0.695160910794605 0.01830431976020002
-0.7462058959774814 0.6653796128226559 0.02113602726190751
-0.7749108416450787 0.6315875320095775 0.02470580723162127
-0.8037961714627524 0.5941920495312147 0.02911224855135523
-0.8325191525570844 0.5529332712406848 0.03430245152622595
-0.8607733874814905 0.5074071504830177 0.04008938815127858
-0.8880743800349408 0.4573710721163566 0.04621252986679622
-0.9138265998009997 0.4027142343140594 0.05236593336305834
-0.9373520076702152 0.3434845526713481 0.0582200634900061
-0.9579179169521524 0.2799442365512598 0.06343885878372356
-0.9747891592374663 0.2126110284981371 0.06769524055705425
-0.9873054331947999 0.1422327435433616 0.07069531984619769
-0.994947304861466 0.0697492129815051 0.07221431878350221
-0.9973881536693074 -0.003762902340594826 0.0721298238324815
-0.9945271678823169 -0.07716129931878461 0.07044037358940218
-0.9864987640835789 -0.1493166608081033 0.06726606326141393
-0.9736570251206466 -0.219189139438468 0.06283405593654089
-0.9565373761059515 -0.2858939614575131 0.05745338035721911
-0.9357993883747673 -0.3487538340533095 0.05148075320474259
-0.9121537885297761 -0.4073394362571607 0.04527747497900582
-0.8863069537217505 -0.4614389555349704 0.03916725800034932
-0.8589258284641101 -0.511008954909357 0.03341061507497427
-0.8306016890531741 -0.5561524632487288 0.0282005631926929
-0.8017776101070542 -0.5971532054949916 0.02367938128576994
-0.7729380412049036 -0.6341663164905899 0.01999668690267876
-0.7451396685640871 -0.6666822627289365 0.0173676392992088
-0.7181480366554861 -0.6957098215855471 0.0158506024263016
-0.6914754156352075 -0.7222377587575516 0.0153091278976019
0 0 0
0 0 0
0 0 0
0 0 0
0 0 0
0 0 0
0 0 0
0 0 0
0 0 0
-0.610181829646657 0.7921352018709223 0.01414060557297442
-0.6358931194541337 0.7716221680336701 0.0154651359486138
-0.6624672470847057 0.7488825867407813 0.0176640260543153
-0.6901183330032097 0.7233951406672086 0.02088437003933531
-0.7188841170967073 0.6946750187525258 0.02514447269809178
-0.7487244904013499 0.6621820030244306 0.03044063638939599
-0.7792406063687802 0.625645376720643 0.03676873636800852
-0.8100736763498825 0.584671890718528 0.04403883614047194
-0.840806902639173 0.5388268312782643 0.05205188151205361
-0.8708775282984033 0.4877609653797597 0.06051091931766271
-0.8995800156659658 0.4312651563225212 0.06903738376077145
-0.9260885261251668 0.3693258058971327 0.07719126166703939
-0.949496050938143 0.3021877255893144 0.08449750147802007
-0.968879442239876 0.2304032554554078 0.0904818560845024
-0.9833885765550187 0.1548398426027727 0.09471816427614391
-0.9923402930824778 0.0766458762633544 0.09688215716427875
-0.9952999640151119 -0.002825364770569654 0.09679875487540948
-0.9921345846567459 -0.08212464717577438 0.09446961550805889
-0.9830263723635005 -0.1598307119253794 0.09007382951380809
-0.9684445107337663 -0.234667648954629 0.08394238597837506
-0.9490820232824027 -0.3055962393847624 0.07651308094745179
-0.9257717381029305 -0.3718671771182428 0.06827511634547492
-0.899398372406789 -0.433032225755746 0.05971314067307975
-0.8708269424440765 -0.4889097255405952 0.0512612581324392
-0.8408526359886391 -0.5395313296546804 0.04327573075072356
-0.8101659813167568 -0.585092296726806 0.03602897483980368
-0.7793372150632856 -0.6258993985201747 0.02972285567514094
-0.7488893834500583 -0.6622413884806329 0.0245160098514146
-0.7193911082602457 -0.6943015439894311 0.0205377547455135
-0.6910889786255069 -0.7225494148534144 0.01784283378115338
-0.6641762454866866 -0.7473956056436267 0.01642326385967909
-0.6386913246735071 -0.769290948361505 0.01627355387911732
0 0 0
0 0 0
0 0 0
0 0 0
0 0 0
0 0 0
0 0 0
0 0 0
-0.5834063149036958 0.812043101952873 0.01493560515163099
-0.6039482191827634 0.7968441320411456 0.01691087749236034
-0.6297197147310778 0.7765605854871369 0.02016774521073422
-0.6577663185305126 0.7528158334442919 0.02473441170498713
-0.6874307290720348 0.7256028092769813 0.03065217605395645
-0.7184844273694427 0.6945079199896852 0.037932528246939
-0.7506604213042847 0.6590467704561214 0.04654338018053534
-0.7836298185787707 0.61866548274365 0.05636779129759319
-0.8169432687541477 0.5727924739445025 0.06717497621752275
-0.8499773805006154 0.520921358911539 0.0786090991365959
-0.8819198141877226 0.4626910033522836 0.0901913341732431
-0.9117836185690383 0.3979718815954874 0.1013361454195768
-0.9384523881399713 0.326956180488731 0.1113856868480169
-0.9607622292487064 0.2502320676723485 0.1196655805044917
-0.977617663137441 0.1688145127826558 0.1255602046655032
-0.9881233886650909 0.08411335508511712 0.1285967039598702
-0.9917047134399358 -0.002167951129730056 0.1285187197606384
-0.9881877025381595 -0.08819025394078769 0.1253297397356791
-0.977818588292836 -0.1721624372749585 0.1192933509486209
-0.9612185376019463 -0.2525118338289621 0.1108904718481714
-0.9392877639147256 -0.3280073015799628 0.1007457526167028
-0.9130847795197476 -0.3978170701622305 0.08954196835513858
-0.883708528222659 -0.461502386797173 0.07794090150270391
-0.8522046352020536 -0.5189622119901646 0.06652429831580099
-0.8195032512231379 -0.570355252091081 0.05576116611787778
-0.7863865449843438 -0.6160196096436176 0.04600046089020633
-0.7534868483827341 -0.6563936220336303 0.0374830930931064
-0.7213267306163358 -0.6919290303533748 0.030363870843258
-0.6903723347157759 -0.7230314399245403 0.02473006954567362
-0.6610628115176619 -0.7500474436112642 0.0206104721093723
-0.6342745377685239 -0.7728981228801748 0.01800839767517936
-0.61317216602703 -0.7897676536698813 0.01693954032700586
0 0 0
0 0 0
0 0 0
0 0 0
0 0 0
0 0 0
0 0 0
-0.5063388115159855 0.8621800805014238 0.01632534039882298
-0.5390895942559749 0.8420808490087723 0.01680038980479652
-0.5654218967657745 0.824574912422113 0.01934663954950005
-0.5924507046239983 0.805257770915662 0.02370833124593514
-0.6211032063865279 0.7831622074706811 0.02979536551250192
-0.6515069397481725 0.7577091215283259 0.03762438853646689
-0.6836353691203707 0.7282948403594154 0.04721554398191304
-0.7173472909142824 0.6942521977939675 0.05853844955398968
-0.7523747052304747 0.654847246867911 0.07146597931095323
-0.788277969151337 0.6093171349251215 0.08573489626333657
-0.8243965160635507 0.5569435154461436 0.1009173171699031
-0.8598195915444657 0.4971514813199814 0.1164073649631159
-0.8933885729909303 0.4296311711244234 0.1314302645796808
-0.9237430831541329 0.3544709347764477 0.1450829856447955
-0.9494214964906615 0.2722753200191113 0.1564128259124644
-0.9690145291576278 0.1842290661445951 0.164531132217921
-0.9813502257700053 0.09207039709951488 0.1687447076476681
-0.9856697802574083 -0.002043980644359873 0.1686739648862196
-0.9817467547249332 -0.09576609161793434 0.1643233558666773
-0.9699147578043543 -0.1868261294913134 0.1560812606708931
-0.9509972540165572 -0.2732778992346804 0.1446492746018708
-0.9261642332362372 -0.3536648685716642 0.130923541856
-0.8967589259106135 -0.4270823994867526 0.1158622149291154
-0.8641371401067581 -0.493145844697747 0.1003702094520996
-0.8295469328640737 -0.5518962294512062 0.08521993952913486
-0.7940569955813401 -0.6036809656920935 0.07101253008727867
-0.7585289444903 -0.6490375179385058 0.05817336743437374
-0.7236250324248901 -0.6885931828248087 0.04697063992831966
-0.6898420133321563 -0.7229857716726338 0.03754424857102673
-0.6575486545376412 -0.7528172116157696 0.02993347308273418
-0.6269988877929112 -0.7786474290761514 0.02409514265472711
-0.598300163669483 -0.8010248080742973 0.01990404488048713
-0.5708021099605282 -0.8209098180555658 0.01708864782792244
-0.5378848720688491 -0.8428824426412249 0.01513447345102428
0 0 0
0 0 0
0 0 0
0 0 0
0 0 0
-0.4420038709101337 0.8968783584149701 0.01554954363723288
-0.4703497989502375 0.8823254837901704 0.01651687869763281
-0.4977571557418013 0.8671190881536167 0.01850137474545718
-0.524060459152427 0.8513893622014029 0.02228876585266876
-0.5511801585395525 0.8339139419887326 0.02807080670601181
-0.5799562433096935 0.813854737467918 0.03593357965932983
-0.6107173580166542 0.7905133740811882 0.04596644445606828
-0.643583860146443 0.7631565758363633 0.05823964042403151
-0.6785314914707269 0.7309591412226608 0.07275815380794544
-0.7153762539409466 0.692995476233761 0.08940964834379087
-0.7537236897246832 0.6482713925439766 0.1079110798616259
-0.7929069342998007 0.5957986080093961 0.1277599789971688
-0.8319357489287829 0.5347145080832023 0.1482002176099742
-0.8694783492930149 0.4644462932051417 0.1682172429886336
-0.903900306747102 0.3849048897468401 0.186580977892891
-0.9333819748469668 0.2966712253433428 0.2019511650970485
-0.9561193426119775 0.2011157286096757 0.2130452214649245
-0.9705822816161995 0.1003872158312925 0.2188434177907424
-0.9757702591437285 -0.002766211372671154 0.2187801395127593
-0.9713892449268796 -0.1053252726055948 0.2128603340008262
-0.9578913421587795 -0.2043961031358164 0.2016591422181116
-0.9363668731784409 -0.297564909232795 0.1862047357273908
-0.9083313790108412 -0.3831212152782664 0.1677862935640675
-0.875478356417472 -0.4601175413843451 0.1477480813918982
-0.8394626277183711 -0.5282914394036516 0.1273210576337829
-0.8017509860309197 -0.5879075522568546 0.1075177492221707
-0.7635461516115 -0.6395780830431566 0.0890906844182338
-0.7257705871110085 -0.6841016824714728 0.07253925092142816
-0.6890903159498677 -0.7223390419270063 0.0581450339417392
-0.6539586623816064 -0.7551294139545501 0.04601778000640333
-0.6206579290926296 -0.7832481867785765 0.03613880134316055
-0.5893138777111564 -0.8074050693758068 0.02839379304158256
-0.5598391305658719 -0.8282932889547687 0.02259148865702092
-0.5316458895630281 -0.8467651999939383 0.01847550242785997
-0.5030782610041366 -0.8640963907275251 0.01580160867499535
-0.4744181612704861 -0.8801773584823842 0.0146705784379238
0 0 0
0 0 0
0 0 0
0 0 0
-0.4121913646374351 0.9109674699640848 0.01538010356150433
-0.4312667348732155 0.9020613778162969 0.01715441762227301
-0.4546324752529735 0.8904442871367091 0.02045199136886273
-0.4794373592605678 0.8772006342913912 0.02566838023783333
-0.5057670967525757 0.8620347054881948 0.03310302669472336
-0.5340510076588934 0.8443587936697434 0.04298544836448659
-0.5646248217800244 0.823478493144389 0.0555156010372033
-0.5977061088862599 0.7985782530884693 0.07085323630022103
-0.633385994639716 0.7686921179186581 0.08907642585996263
-0.6715893379731246 0.7326943153212061 0.110121757236292
-0.712005953612 0.6893246623170562 0.133712497331186
-0.7540050548259407 0.6372640425981805 0.1592825078542965
-0.7965524820755641 0.5752751053650712 0.185910452762786
-0.8381594251884912 0.5024165216961822 0.2122885222860798
-0.8769009092528192 0.4183184239893836 0.2367582976425895
-0.9105431771762895 0.3234705334057625 0.2574450164907049
-0.9367989767017226 0.2194334847642541 0.2725006844300042
-0.9536830701709422 0.108864751168131 0.2804230155005581
-0.9598814880211636 -0.004715600099519605 0.280366353312907
-0.9550132425162758 -0.1174004051429267 0.2723359166375695
-0.9396873391585948 -0.2254825957850204 0.2571872928880601
-0.9153383673465675 -0.3259692748847038 0.2364311846911493
-0.8839126745718178 -0.4168784060724435 0.2119216324064023
-0.847520061808372 -0.4972785474330686 0.1855364953188191
-0.8081481554777233 -0.5671300169875509 0.1589342714132274
-0.7674853092159979 -0.6270289588424659 0.1334203316985723
-0.7268495005374731 -0.677944793567843 0.1099120577674719
-0.6871945383733835 -0.7210047287760779 0.08897104873118011
-0.6491597489604551 -0.7573435349474336 0.07086882532484648
-0.6131348894375224 -0.7880149187774304 0.05566053483965731
-0.5793192200428198 -0.8139524245246363 0.04325149592146417
-0.5477603636972539 -0.8359663006717855 0.03345038270905016
-0.5183679181515857 -0.8547620333760823 0.02601091559279631
-0.4909454595474663 -0.8709449541978758 0.02067468275420372
-0.4656251585662615 -0.8848140417153774 0.01724306508257527
-0.4454354661630628 -0.8951769132834321 0.01566969713942574
0 0 0
0 0 0
0 0 0
-0.3352658509104137 0.9420131891831098 0.01442083972528498
-0.3642460344573075 0.9311718811073826 0.01561263004955284
-0.3858251642434788 0.922391094758902 0.01826501973627078
-0.4077389921071092 0.9128146468470868 0.0227669676704276
-0.430965430047421 0.9018878158055645 0.02944767911923141
-0.4559447155854977 0.8891680591612956 0.03865978397500114
-0.48309918894224 0.8740939117164577 0.05074452821310825
-0.5128110661841698 0.8559589316906865 0.0660236143966187
-0.5453961090831794 0.8338800715708009 0.0847768272230343
-0.5810715281107482 0.8067621358166441 0.1071948479713748
-0.6198987741355196 0.773275396607659 0.1333066796021381
-0.6616956334424844 0.7318660553058506 0.1628832888119663
-0.70592215872208 0.6808248362329115 0.1953239570395483
-0.7515569682127058 0.6184434054683694 0.2295427580291123
-0.7969978233101763 0.543283126051989 0.2638899668157535
-0.8400405569708549 0.4545546363154755 0.2961620253310702
-0.8780012808521005 0.3525517416506878 0.3237607454296106
-0.9080270839704913 0.2390093552646391 0.3440368335978399
-0.9275738974407125 0.1172048985521942 0.354781167118572
-0.9349317900088925 -0.008340325598995788 0.354729456064295
-0.929608531951884 -0.1325503794181497 0.3438871533488382
-0.9124118536858815 -0.2506665209469917 0.3235288310642882
-0.8852030592391815 -0.3589920048820282 0.2958720742895068
-0.8504421863929932 -0.455277924578704 0.2635718099387966
-0.8107077771915828 -0.5387088011763369 0.2292285486937356
-0.7683323922599331 -0.6096087036055725 0.1950450293969608
-0.7252053877479833 -0.6690413631418495 0.1626677595179605
-0.6827216739834427 -0.7184391026412575 0.1331779699097037
-0.641824097718267 -0.7593261670837947 0.1071708895641211
-0.6030886591422192 -0.7931464466471533 0.08486921341119129
-0.5668167829663735 -0.8211769307178394 0.06623581360924899
-0.5331144208699939 -0.8445004370813165 0.05106883619112314
-0.5019497001276924 -0.8640136771199427 0.03907511089420915
-0.4731914402458419 -0.8804512120538132 0.02992530820286834
-0.4466449152613187 -0.8944079482652411 0.02329681847743483
-0.4220849409408966 -0.9063592408585895 0.01890050637312023
-0.3987599293128597 -0.9169078788354696 0.01644568344102514
-0.3692563728076863 -0.9291972033829515 0.01556561486778997
0 0 0
0 0 0
-0.3050741225378217 0.9522242511515546 0.014098059321723
-0.3202866713344607 0.9471839852227236 0.01609180857112825
-0.3381496704541558 0.9408856416643169 0.01972332836191917
-0.3575809421480262 0.9335370028550545 0.0253876763988219
-0.3786439167986018 0.9249354199105452 0.03351497077898601
-0.4016287900941629 0.9147184889770791 0.04454661480951917
-0.4269276550296942 0.9023632142454089 0.0589356169691991
-0.4549638433653274 0.8871628264013813 0.07713637716254219
-0.4861460926173573 0.8681858066479223 0.09957601000226847
-0.5208224709030178 0.8442254574558045 0.1265990947282496
-0.5592121392770356 0.8137553684469493 0.1583792398295026
-0.6013020178892735 0.7749139571324046 0.1947928189736092
-0.6467048284470009 0.7255530837331564 0.2352564293460268
-0.6944895303516356 0.6633980218902917 0.2785450713690912
-0.7430197070068421 0.5863682972032944 0.3226359171486881
-0.7898694665763027 0.4930817715008334 0.3646595568253579
-0.8319150115954438 0.3834872384604877 0.4010672654556856
-0.8656895418077662 0.2594458867097533 0.4280998120462669
-0.8880022034619698 0.1249714373987859 0.4425316107140453
-0.8966657221704133 -0.01413573413656819 0.4424825010156122
-0.8910473894120089 -0.1512820776423431 0.4279582722722619
-0.8721875585451437 -0.2803715331042934 0.400849929704134
-0.8424411117714022 -0.3968773894526042 0.3643916998761764
-0.804836558249884 -0.4983270359451089 0.3223480723544703
-0.7624353447505855 -0.5841734314000834 0.2782691990165413
-0.7178871466648301 -0.6552880576889707 0.2350225650945978
-0.6732289254419659 -0.7133605256317224 0.1946267566874819
-0.6298730980535879 -0.7603950118014321 0.1583013151425939
-0.5887000490496571 -0.7983725276596564 0.1266236918086903
-0.5501855323159546 -0.8290678667340581 0.09971134528852592
-0.5145218175221703 -0.853978315356015 0.07738434076339307
-0.4817150690529158 -0.8743197362152044 0.05929242035808294
-0.4516571605874951 -0.8910556618768088 0.04500685200415171
-0.4241811820554745 -0.9049356684748159 0.03408461107389203
-0.399120563855839 -0.9165265185922764 0.02611352570064684
-0.3763967735777881 -0.9262263190654528 0.02074306415871533
-0.3561641030427191 -0.9342558395598336 0.01769626944091411
-0.3397211649287307 -0.9403778010731594 0.01670692515920634
0 0 0
0 0 0
-0.2627352975417124 0.964752826758061 0.01490458613977672
-0.2731509681299696 0.9618172610533759 0.01720770029497855
-0.2876025888467063 0.9575078869535535 0.02152666510198396
-0.3041877657694729 0.9521945385867554 0.02820219568991234
-0.3225580206012482 0.9457989951980249 0.03769063581595224
-0.34288222471571 0.9380197986962953 0.05050383379276051
-0.3655294179574473 0.9283706343805148 0.06720275163719169
-0.3909553052293543 0.9161562460641012 0.08838372084697613
-0.4196466903144698 0.9004182669773447 0.1146455398243922
-0.4520724376888783 0.8798637931178742 0.1465271873826201
-0.4886132907116449 0.8527908811134607 0.1844038102362975
-0.5294515456902746 0.8170357083501874 0.228328079847588
-0.5744087923092998 0.769984729332841 0.2778093877319541
-0.6227338370751839 0.7087190018311378 0.3315417690202754
-0.6728722294649994 0.6303744332341898 0.3871318079665823
-0.7222973812586875 0.5327821823661324 0.4409417639326344
-0.7675374917722999 0.4153553426962787 0.488227547376777
-0.8045448584944652 0.279991726549256 0.5237482255187955
-0.8294544664133673 0.1315467072648033 0.5428634745078211
-0.8395490651385815 -0.02258929481323379 0.5428140482566514
-0.8340227633166204 -0.1739034896558162 0.5236063469394135
-0.814150219502714 -0.3146493807299655 0.4880114622526108
-0.7827897977184788 -0.4393658891975495 0.4406787355858113
-0.743520394948641 -0.5454553311958404 0.3868538534969665
-0.6998267823244388 -0.6328469734366732 0.3312811237506064
-0.6545884140006984 -0.7031749982201209 0.2775949029326419
-0.6098992387264057 -0.7589172392976071 0.2281831336839971
-0.5671145798409792 -0.8027439057970837 0.1843455316448756
-0.5270021539443639 -0.8371302141448048 0.1465664842447752
-0.4899113571523021 -0.8641821011800352 0.1147874476292964
-0.4559184986547808 -0.8855977610600912 0.08862803275332173
-0.4249360994189937 -0.9026997889100239 0.06754555879085594
-0.3967912039961971 -0.9164942327853941 0.05094174812822597
-0.3712877214518517 -0.9277304739279439 0.03823082061013514
-0.3482789102293061 -0.9369458802400025 0.02888283557363219
-0.3278021662627572 -0.9444795233846124 0.02245372353572464
-0.310425042867698 -0.9504157284995359 0.01860741199855908
-0.2983267862807393 -0.9543109934265556 0.01707795106639736
0 0 0
0 0 0
-0.2127712404378237 0.9769645107575137 0.01639341217932555
-0.2218398778846885 0.9749038598553291 0.01869579148597264
-0.2339024741524972 0.9719766506387724 0.02347388332539215
-0.2476420327603832 0.9683553562087578 0.03100528522872291
-0.2629096915310371 0.9639175937090555 0.04172968532350323
-0.279935598290778 0.9583717009175733 0.05621159746832902
-0.2991115304630089 0.9512569709390571 0.07511636029471916
-0.3209202854086512 0.9418979749772716 0.09918858375309451
-0.3459012219319277 0.9293306121341158 0.1292167095093681
-0.3746140051641564 0.9122056910815372 0.1659672386145059
-0.4075781098184161 0.8886794196875872 0.2100689730078667
-0.4451680113410161 0.8563139275687395 0.261824175985496
-0.4874456068590326 0.8120367140411808 0.3209254670527575
-0.5339210826145325 0.7522457986391808 0.3860758163488439
-0.5832624953540186 0.6731858801799819 0.4545609224732216
-0.6330339026205803 0.571721350142204 0.5219221933627013
-0.6796247200490195 0.4465220746135345 0.5820036741989835
-0.7185833134721932 0.2993933868334228 0.6276954847055504
-0.7454745248742102 0.1361025957199703 0.6524904721157669
-0.7570763141725395 -0.03406951234374515 0.6524375240952819
-0.7523779225086983 -0.2002894786716067 0.6275440912437555
-0.7328166924607444 -0.3528707549465022 0.581774806565547
-0.7016416129861541 -0.4853700902993867 0.5216463575727838
-0.6628288158864493 -0.5952263614177408 0.4542725387957809
-0.6201139700542525 -0.6830893244342163 0.3858077746592974
-0.5764471631515105 -0.7515694973222415 0.3207054081074545
-0.5338586176605902 -0.8040661027891987 0.2616728466901238
-0.49357276957326 -0.8439703066715991 0.2100001014105189
-0.4562126770138566 -0.8742527937751629 0.1659880896575796
-0.4219997499957763 -0.8973239586134463 0.129328745071605
-0.3909110385485766 -0.9150467702836046 0.09938796775473956
-0.3627897101449977 -0.9288160775475063 0.07539443150639807
-0.3374191296302223 -0.9396540866789491 0.05655553330252335
-0.3145765214099719 -0.9482970231361303 0.04212324879154604
-0.2940874747028348 -0.9552616641287585 0.03142785816539769
-0.2759209108932403 -0.9608833526773625 0.02389212170058121
-0.2604427788854387 -0.9653015730506456 0.01903764671327867
-0.2492859662224927 -0.9682888929073172 0.01652655187386928
0 0 0
-0.1223443039465745 0.9923445620180993 0.0168564980032782
-0.1521275412248704 0.9882090089177178 0.01732529638236897
-0.166231245178677 0.9858853438037583 0.01993143244454393
-0.1773144977310841 0.9838310423470353 0.02522001206817409
-0.1882991333655045 0.9815391460835541 0.03353119561493165
-0.2001041345778747 0.9787245022578352 0.04535067810950583
-0.2132347732208123 0.9750750158071988 0.06131594440322267
-0.2281457802227706 0.970150733361282 0.08220132313478716
-0.2453306088924583 0.9633033992941776 0.1089011168387981