# OOMMF: rectangular mesh v1.0
# Segment count: 1
# Begin: Segment
# Begin: Header
# Title: 
# Desc: time = 1.1199999999999999e-09
# Desc: stepsize = 3.071265850855577e-14
# Desc: step = 7166
# meshunit: m
# valueunit: (none)
# valuemultiplier: 384000.0000000001
# xmin: 0
# ymin: 0
# zmin: 0
# xmax: 9.357999999999999e-08
# ymax: 9.357999999999999e-08
# zmax: 2.3395e-08
# ValueRangeMaxMag: 1
# ValueRangeMinMag: 0
# meshtype: rectangular
# xbase: 1.16975e-09
# ybase: 1.16975e-09
# zbase: 1.16975e-09
# xstepsize: 2.3395e-09
# ystepsize: 2.3395e-09
# zstepsize: 2.3395e-09
# xnodes: 40
# ynodes: 40
# znodes: 10
# End: Header
# Begin: Data Text
0 0 0
0 0 0
0 0 0
0 0 0
0 0 0
0 0 0
0 0 0
0 0 0
0 0 0
0 0 0
0 0 0
0 0 0
0 0 0
0 0 0
0 0 0
0 0 0
-0.9930661944787895 0.1173928416896231 0.006201137270650456
-0.9962326507228179 0.08645726558225075 0.006756246134293704
-0.9989804317031766 0.0446365437876924 0.006758404606379453
-0.9999792376414873 -0.001303864233723912 0.006310643707981749
-0.9988168172794707 -0.04830211697123214 0.005645442038066708
-0.9955469721337118 -0.09413201374014685 0.005038875333118226
-0.9907282869819516 -0.1357732585683208 0.004804542803111073
-0.9860138034194028 -0.166582661721157 0.00519579448181835
0 0 0
0 0 0
0 0 0
0 0 0
0 0 0
0 0 0
0 0 0
0 0 0
0 0 0
0 0 0
0 0 0
0 0 0
0 0 0
0 0 0
0 0 0
0 0 0
0 0 0
0 0 0
0 0 0
0 0 0
0 0 0
0 0 0
0 0 0
0 0 0
0 0 0
0 0 0
0 0 0
0 0 0
-0.9441433035242424 0.3293104736326015 0.01216693742078498
-0.9540087366719441 0.2995006357782037 0.01291121690826534
-0.9661369395944793 0.2577190423026111 0.01266132637750354
-0.977999169859862 0.2083011464906192 0.01132502203591131
-0.9889484518126038 0.1479640319360686 0.009359749498543979
-0.9950826114198237 0.09863657403611104 0.009023453458741571
-0.9987191343456115 0.04982938990427432 0.008781947034655653
-0.9999655805002827 0.0001865868968102834 0.008294757384129697
-0.998732371874095 -0.04975834816941016 0.007599747245493936
-0.9950469813689475 -0.09916994307853945 0.006843044523013419
-0.9890470824164739 -0.1474720279392391 0.006153839366482079
-0.9806193882147017 -0.1958476945924567 0.005412576118937838
-0.9671326159521101 -0.2542463964685447 0.003643218959517659
-0.9532199666792386 -0.3022740670870951 0.001443430170442279
-0.9393363097501625 -0.3429975121023507 6.226189844175508e-05
-0.9281848124686248 -0.3721195418462694 -2.187933969406017e-05
0 0 0
0 0 0
0 0 0
0 0 0
0 0 0
0 0 0
0 0 0
0 0 0
0 0 0
0 0 0
0 0 0
0 0 0
0 0 0
0 0 0
0 0 0
0 0 0
0 0 0
0 0 0
0 0 0
0 0 0
0 0 0
0 0 0
-0.8995387440465773 0.4366408538020951 0.01322167727949289
-0.913326806631064 0.4069934375863949 0.01380166840319006
-0.9331915428150567 0.359114621865131 0.01379249002601215
-0.9487912788167039 0.3155751761198333 0.01440199494163332
-0.9630143811827275 0.2690543042302072 0.01459736313334664
-0.9757524991386335 0.2184150956018575 0.0142093785206045
-0.9864572239065366 0.1634557502156811 0.01357803829855934
-0.9938870522515402 0.1095989613446322 0.01328890661120657
-0.9983491964111066 0.0559503439922374 0.01297848344172854
-0.9999205418693472 0.002130373758224468 0.01242463099494911
-0.9985960353574262 -0.05168697830747127 0.01159372424513582
-0.9944007862558152 -0.105147608705322 0.01053834319844698
-0.9873875984238019 -0.1580483508448136 0.009297810178261678
-0.9775166468483883 -0.2107143873650274 0.007787945278670701
-0.9644913515521824 -0.2640508943745447 0.005792923359315624
-0.9497057528912061 -0.3131225736475902 0.003638241011274478
-0.9336687386662426 -0.358132467342189 0.001955063370586047
-0.916509309711239 -0.4000121472119367 0.000983511831947566
-0.8952538926966901 -0.4455562920813357 0.0002412429354635082
-0.8805141738756886 -0.4740198177317315 4.473911901623526e-05
0 0 0
0 0 0
0 0 0
0 0 0
0 0 0
0 0 0
0 0 0
0 0 0
0 0 0
0 0 0
0 0 0
0 0 0
0 0 0
0 0 0
0 0 0
0 0 0
0 0 0
0 0 0
0 0 0
-0.8647018944813579 0.5020593409846106 0.01506823846533775
-0.8846958659559888 0.4659228702683321 0.01513617261071474
-0.9040846865807901 0.4270531551573303 0.01601506042083213
-0.9240107699736384 0.381989107663197 0.01698289137330605
-0.9420826323773349 0.3348927567715619 0.01808743306647085
-0.9583167466539296 0.2850772073870475 0.01897363726409563
-0.9724745346025208 0.2321923240239239 0.01949369677559981
-0.984109955494595 0.1764607047997974 0.01972853664071857
-0.992629868262619 0.1195565044139796 0.01980370887599647
-0.9978844020476341 0.06198802750159763 0.0196011376327067
-0.9998111097644345 0.004077408080269864 0.01900314539638299
-0.9983899971693191 -0.05379949005927894 0.01797299144849781
-0.9936567919545506 -0.1112330850794331 0.0165342246961156
-0.9857018853483462 -0.1678540864729781 0.01472409165405598
-0.9746524594768778 -0.2233715412532317 0.01255937075765018
-0.9607078269927042 -0.277378622791144 0.01007823265478069
-0.9445052901102257 -0.3284102755513084 0.00751317949415255
-0.9264841085640388 -0.3762979677401696 0.00519962045881505
-0.9068956158846163 -0.4213423583082164 0.003310435701314753
-0.8857280287431861 -0.4642010272152403 0.001807050365775286
-0.8654117986176671 -0.501060618605953 0.000821763684544067
-0.8448452890196761 -0.5350106081751708 0.0002945526999241783
0 0 0
0 0 0
0 0 0
0 0 0
0 0 0
0 0 0
0 0 0
0 0 0
0 0 0
0 0 0
0 0 0
0 0 0
0 0 0
0 0 0
0 0 0
0 0 0
-0.7945909653532798 0.606867416383 0.01836128294985605
-0.8142635998663269 0.5801961393668745 0.01863410305069007
-0.8441501758567944 0.535805009404376 0.01798534120107156
-0.8688907483443574 0.4946489603872439 0.01874228986546184
-0.8918192283671621 0.4519359731108607 0.0203061597289637
-0.9137694520553193 0.405626387531337 0.02219509470127046
-0.9340947929344777 0.3562059953682676 0.02417036773398589
-0.9524211709469819 0.3036759234924454 0.02597781020389854
-0.968349777927266 0.2480836223002725 0.02744492547976428
-0.981417194891377 0.189758384990189 0.02849640148256234
-0.9911513452586078 0.1295110829301909 0.02908419141562028
-0.9972585153306763 0.06802840809511183 0.02911338682632804
-0.9995760940188647 0.005934111116363449 0.02850295758772636
-0.9980504797980403 -0.05615939822077498 0.02722795927683945
-0.9927323084531 -0.1176496525825146 0.02532040680147002
-0.9837722958399054 -0.177960357562171 0.02285128167576187
-0.9714160292470534 -0.2365463285320563 0.0199181469994477
-0.9560141337952521 -0.2928470464068794 0.01666083414718298
-0.9380651363006094 -0.3462037637676402 0.01329488662751933
-0.918031065650126 -0.3963807568860163 0.01006270697984429
-0.8963086123350092 -0.4433734319808667 0.007132409662742186
-0.8732660829460194 -0.4872221770791912 0.004571491914958358
-0.8495444695897035 -0.5275115495838946 0.002399842733765498
-0.8243131244069501 -0.5661339678976143 0.0004509134665078808
-0.7941969291346452 -0.6076579204023075 -0.001757704594472848
-0.7742181495039987 -0.6329126772910144 -0.002792830629148373
0 0 0
0 0 0
0 0 0
0 0 0
0 0 0
0 0 0
0 0 0
0 0 0
0 0 0
0 0 0
0 0 0
0 0 0
0 0 0
-0.7489632733560687 0.6623494802686642 0.01863279773925643
-0.7735454995812396 0.6334474475343208 0.01927929692347983
-0.798462717947665 0.601697032151296 0.02044430355745386
-0.8258373094565528 0.5634872022809208 0.02179245684135391
-0.8522458460058383 0.5225956144449061 0.02389229433820608
-0.8776312358730048 0.4785956220664434 0.02663915086588862
-0.9019184502307801 0.4308808419569899 0.02974574201028232
-0.9246312449098452 0.3794366505555901 0.03293765552713661
-0.9452593163298161 0.3243341039456432 0.03594737694832285
-0.9632683555938557 0.2657601811455593 0.03854349788210483
-0.97810858791599 0.2041077093774315 0.04054174660378253
-0.9892648894849975 0.1400305933187827 0.04179008694684455
-0.9963453145188667 0.07428823329508624 0.04215771139655027
-0.9991064038255164 0.007691235761309347 0.0415600616855575
-0.9974610813220044 -0.05893109356187468 0.03998146394941818
-0.9914783004118418 -0.1247641422536437 0.037479175820145
-0.9813744471567631 -0.1890406872834441 0.03417327931527774
-0.9674970143688022 -0.2510685787806746 0.03023401952280031
-0.9503035472326752 -0.3102478025509717 0.02587410151652168
-0.9303331546178386 -0.3660940531065733 0.02133929939856401
-0.9081274720487539 -0.4183536748850714 0.01687297307812296
-0.8841974891868408 -0.46694145238112 0.01266807656655114
-0.8590212421440425 -0.5118635229706918 0.008845303688249213
-0.8330372772696678 -0.5531899354517088 0.005458021076550951
-0.8062798433972261 -0.5915290543561008 0.002488369731557215
-0.7787385683814809 -0.6273485801152402 -3.380166738984333e-05
-0.7537475755121014 -0.657162113456264 -0.001596573620159357
-0.7293707487346804 -0.6841154313694722 -0.002094624637547306
0 0 0
0 0 0
0 0 0
0 0 0
0 0 0
0 0 0
0 0 0
0 0 0
0 0 0
0 0 0
0 0 0
-0.6966458478028984 0.7171527157891247 0.01940476681805238
-0.7232323534656824 0.6903142308197708 0.02003061726950919
-0.7498591137414452 0.6612423885591203 0.02167517269880363
-0.7771136454547409 0.6288991042021158 0.02408939147879337
-0.8053388179397436 0.5921935709664375 0.02713232067912411
-0.83352821723632 0.5516131440303994 0.03088123060597243
-0.8612260964152876 0.5069988093419839 0.03523944067512716
-0.8880166619459422 0.4580704826547089 0.03997300372585856
-0.9133354154796371 0.404737344962562 0.04478951242527635
-0.9365419669135805 0.3470613157359116 0.04937192855559779
-0.9569563034701374 0.285275986097979 0.05340641351556341
-0.9738942580122767 0.2198318064997281 0.05660345450396482
-0.9867244686930539 0.1514188035978519 0.0587125948958563
-0.9949411504015756 0.08091406136202586 0.05954008659290733
-0.9982160237971242 0.009319202493590263 0.05897391202508056
-0.9964278199437165 -0.0623079055029848 0.05700284689419446
-0.9896694457404743 -0.1329232449087498 0.05371963449866613
-0.9782338686241356 -0.2015617251876224 0.04930891619216574
-0.9625817917078805 -0.267391208244509 0.04402540205367182
-0.9432961539726833 -0.3297507308189054 0.03816833012775206
-0.9210283267733397 -0.388174511006779 0.0320526174555166
-0.8964370998384332 -0.442409134325732 0.02597467802330917
-0.8701493250343501 -0.4923747642699232 0.02018027879891636
-0.8427379156441466 -0.5381192463782943 0.01484864347389864
-0.8146948945032838 -0.5798019460772655 0.01009614754737913
-0.7863651934051645 -0.6177327830395258 0.005999279881767299
-0.7581390675710508 -0.6520874794995801 0.002659568081794009
-0.7309893855795642 -0.682388779641887 0.0002675609585818227
-0.7046513001477495 -0.7095528524616017 -0.001137876834312534
-0.6786037829888871 -0.7345025617500166 -0.001700733910416469
0 0 0
0 0 0
0 0 0
0 0 0
0 0 0
0 0 0
0 0 0
0 0 0
0 0 0
-0.6431218652304633 0.7655087167112146 0.01976540163109571
-0.6685983325950338 0.7433362429954556 0.02067606104993921
-0.695207736247015 0.7184541047489861 0.02258102813497808
-0.7230022420140785 0.6903736408293819 0.02553417495434383
-0.7518805089398317 0.6586402074005995 0.02947503132609493
-0.781679224654644 0.6227352651624203 0.03432752927904954
-0.8118844603764022 0.5824441319742566 0.04003068982758389
-0.8420071465452025 0.537464284768323 0.04643390749528175
-0.8715003252524341 0.4874921255104764 0.05327861344084221
-0.8996911012805111 0.4323531830436064 0.06022165215868972
-0.9258000852646384 0.3720531832327797 0.06686277716594662
-0.9489800317714239 0.3068234059676324 0.0727756611067745
-0.9683698057430588 0.2371647567812219 0.07754223021072966
-0.983168554985672 0.1638672317525497 0.0807906111199887
-0.992721921783046 0.08798002078641683 0.08223564892306126
-0.9965976764024156 0.0107422017526247 0.08171705140796184
-0.994635310510888 -0.06651460394435799 0.07922377513747714
-0.9869605853782798 -0.1424755039065831 0.07489682033522999
-0.9739637377644617 -0.2159452635476311 0.06900927960225622
-0.9562473929293753 -0.2859293923570264 0.06192984823260745
-0.9345557211725258 -0.351683359757975 0.05407789283101073
-0.9096982764165135 -0.4127278239285539 0.04587798208317673
-0.8824806954811353 -0.4688337625611824 0.03771902949249557
-0.8536552290908043 -0.5199781380613873 0.02992466848836871
-0.8238898269774193 -0.5662936039332523 0.02273999004849564
-0.793747309918766 -0.6080282359877507 0.01633622472745618
-0.7636790631823197 -0.6455052134339072 0.01083087653976813
-0.7341038850230586 -0.6790077728773729 0.006319047884105289
-0.7055060515214158 -0.7086980147620837 0.002887064069562299
-0.678075764220433 -0.7349917982970836 0.0005607253285772003
-0.6519603696254248 -0.7582527353568155 -0.0006824674249705743
-0.627163533824582 -0.7788871549728674 -0.0008376508426822847
0 0 0
0 0 0
0 0 0
0 0 0
0 0 0
0 0 0
0 0 0
0 0 0
-0.6166190819661209 0.7869710540290612 0.02138849867676129
-0.6374826746786683 0.770113540276503 0.02325885997467698
-0.6637942523544305 0.7474484771531051 0.02641901857991548
-0.6924800747336455 0.7207759975886713 0.03087567646125296
-0.7227567570829794 0.690132167089083 0.03660958945167821
-0.7542648389085327 0.6551238362938303 0.04355814396802705
-0.7865961021475045 0.6153072294345622 0.05160993598053551
-0.8192646459001514 0.5702083882247144 0.06056264505676937
-0.8516575798288295 0.5193893586203853 0.07010036285216312
-0.8829998521280645 0.4625408222878227 0.0797950428229755
-0.9123626121781482 0.3995637637485516 0.08912498302135642
-0.9387041434117419 0.3306456953432457 0.09750874469814827
-0.9609410702044251 0.2563246674067381 0.1043548009111154
-0.9780483469371613 0.1775199481106426 0.1091242368875048
-0.989175688221771 0.09550707320585636 0.1113995367972237
-0.993756027442084 0.01183189873931182 0.1109457709637912
-0.991580242039768 -0.07182532623452681 0.1077485318120758
-0.9828199642919689 -0.1538098766721285 0.1020168595244768
-0.967994127903357 -0.2326436413584743 0.09415043536855282
-0.9478898887271643 -0.307138537257039 0.08467985463148781
-0.923458666352577 -0.376455997488054 0.07419550858100084
-0.8957105783991616 -0.4401116378590174 0.06327958568837076
-0.8656257053933525 -0.4979366179508947 0.05245248007373106
-0.8340926088024383 -0.5500125614091351 0.04213908201781438
-0.8018734254449619 -0.5966008311346471 0.03265666631196169
-0.7695904685684521 -0.6380782468703633 0.02422109740357274
-0.7377356504304046 -0.6748764794189372 0.01696607235421147
-0.7067158313833087 -0.7074125119545952 0.01096684103504123
-0.6769071719007539 -0.7360418033336252 0.006256546548023884
-0.6486804805579379 -0.7610555985818124 0.0028301961771498
-0.6228434058609524 -0.782346238583414 0.0006743514753444424
-0.6024308859386601 -0.7981710280133573 -0.0001941835751039208
0 0 0
0 0 0
0 0 0
0 0 0
0 0 0
0 0 0
0 0 0
-0.539407121234774 0.8416860215878962 0.02458858728663706
-0.5726369278592846 0.8194397649545143 0.02460529339736304
-0.5998203314802155 0.799676016235331 0.02708946291372676
-0.6279135339114729 0.7776449292096997 0.03151123617451377
-0.6577406156247738 0.7523018673133989 0.03767204526324679
-0.6893132263791258 0.7230330117285928 0.04550318548717155
-0.7224682141069869 0.6892184770513392 0.05493241753366213
-0.7569027751787921 0.6502041330001654 0.06582381298698134
-0.7921606549395692 0.6053165567612333 0.07793178348040337
-0.8275950002366247 0.5539217607245387 0.09086912885665413
-0.862337984433532 0.4955174973474488 0.104094238196135
-0.8953015270482155 0.4298426298324743 0.1169208674439041
-0.9252188604731792 0.3569923457447274 0.1285555339314021
-0.9507330008171135 0.2775195587630558 0.1381653200381507
-0.9705306307988931 0.1924916676896319 0.1449732821976722
-0.9835043744255683 0.1034708467123489 0.1483675482253459
-0.9889095157145195 0.01240206759431081 0.1480005352985594
-0.9864747174856926 -0.07857926344371828 0.1438503775391806
-0.9764356240653769 -0.1673799849556885 0.1362255948501989
-0.9594834035825622 -0.2521673897965772 0.1257108021325225
-0.9366462329945917 -0.3315250932193103 0.113070538970007
-0.909138786332754 -0.4045224018081173 0.09913775073501807
-0.8782164403807231 -0.4707011232283607 0.08471326009882271
-0.8450603969285259 -0.5300035198180125 0.07049251395374825
-0.8107043498938666 -0.5826718838897494 0.05702572040345175
-0.7760001439490272 -0.6291462325049411 0.04470788203356567
-0.7416138705753039 -0.6699753852463398 0.03379127304991739
-0.7080454324976491 -0.7057448556480389 0.0244103307135531
-0.6756656479428037 -0.7370210610810052 0.01660986794227705
-0.6447520176618571 -0.7643214964382971 0.0103675360277057
-0.6154980019155509 -0.788118512595874 0.005605331536224661
-0.5879801717551686 -0.8088723926797793 0.002184029132317702
-0.5615740143145499 -0.8274264918207636 -0.0001645594874048114
-0.5299135594696025 -0.848049467257128 -0.001928879248870773
0 0 0
0 0 0
0 0 0
0 0 0
0 0 0
-0.4745509019259649 0.8798714962057295 0.0250517792969637
-0.5033727666740492 0.8636867711617019 0.02571029154222937
-0.5317121392696282 0.8464745888135973 0.02762193776993304
-0.5593160157983487 0.8283533346671527 0.03156497136493466
-0.5880021009718136 0.8079835569646692 0.03763111647896869
-0.6185068299950067 0.7844426630349461 0.04581495018188902
-0.6510433264007858 0.7569637180383022 0.0561116451605972
-0.6855895984161973 0.7247602183633127 0.06848013158194008
-0.7219420203637618 0.6869829447462432 0.08278981133490376
-0.7596952422135009 0.6427348471090065 0.09876768332775286
-0.7981959219330191 0.5911329933787826 0.1159528108694958
-0.8364992906678913 0.5314152507966481 0.1336666298402474
-0.8733544011425407 0.4630850628022427 0.1510109751455052
-0.9072402009779851 0.3860794122712604 0.1669068756813288
-0.936469570794601 0.3009288623544365 0.1801848017393246
-0.9593650529463079 0.208861382667391 0.1897251117158528
-0.974484998921413 0.1117970631858049 0.1946288867053454
-0.980850726156117 0.01220149403272358 0.1943784364130623
-0.9781104033232586 -0.08718954282267902 0.1889392032723325
-0.9665880772828991 -0.1837108728976698 0.1787674579830564
-0.9472042846350177 -0.2750836795144656 0.1647210139412897
-0.9212991860075337 -0.359628203380857 0.1479032291564733
-0.8904159578968238 -0.4363393443203717 0.1294889899595686
-0.8561016304857046 -0.5048395727432609 0.1105757842934836
-0.8197613129577006 -0.5652537324731021 0.09208478540504289
-0.7825760182292093 -0.6180553409774409 0.0747152673941202
-0.7454752924412783 -0.6639219387724182 0.05894274829241439
-0.7091484400946771 -0.7036188212919148 0.04504491353151936
-0.6740785228142517 -0.7379158690578106 0.03314083995935661
-0.6405854408522473 -0.7675354063125529 0.02323129408266968
-0.6088616546202804 -0.7931301646745195 0.01523244617332292
-0.5789798027412951 -0.8152922317166278 0.008998050909557456
-0.550832027803174 -0.8346048981224176 0.004329108027237789
-0.523846510464809 -0.8518121116522553 0.0009797532177307899
-0.4964268669144605 -0.8680776299894071 -0.001262583647013802
-0.4688228841168476 -0.8832893758178614 -0.002232016051218527
0 0 0
0 0 0
0 0 0
0 0 0
-0.4443022452734022 0.8955114917951971 0.02558677212454618
-0.4641980113327666 0.8853066547260852 0.02742869614859769
-0.4888830420426022 0.8717994587410874 0.03096893511112728
-0.5154141073838645 0.8561584730905744 0.03661921442234204
-0.543796191362409 0.8380296371672525 0.0446321575667231
-0.5743699179015604 0.8167350373424832 0.05516408421179918
-0.607363285183252 0.7914811899258446 0.06831812208320698
-0.6428520100890546 0.7613567989320492 0.08412560754255932
-0.6807361692698017 0.7253225204672427 0.1024963860383448
-0.7206891020605636 0.6822315870625106 0.1231555105762855
-0.7620866295854396 0.6308971733336068 0.145577215548207
-0.8039363620010834 0.5702182911367396 0.1689302409444761
-0.8448350417438736 0.4993684533513347 0.1920544194730307
-0.8829877000023533 0.4180344037810337 0.2134946343587804
-0.9163214596629985 0.326663637961346 0.2316157382280614
-0.9427095081184751 0.226646923365044 0.2448059546501716
-0.9602826317682371 0.1203465713563616 0.25174187154114
-0.9677570318076182 0.01090716785974808 0.2516492818908637
-0.9646768065230559 -0.09814080657382694 0.244472986322654
-0.9514853797289162 -0.2033840769632634 0.2308906438120024
-0.9294036430214339 -0.3019854325837476 0.2121642449747205
-0.9001673269384034 -0.3919717218042275 0.1898866841524124
-0.8657184687774904 -0.4723048269254361 0.1657096354485474
-0.8279380874338241 -0.5427725927254576 0.1411256034973989
-0.7884677704923631 -0.6037801439487575 0.1173376012539018
-0.7486254785291279 -0.6561205359522008 0.09521415440379886
-0.7093949764194196 -0.7007765556709612 0.07530595230680392
-0.6714604279600356 -0.7387752180854371 0.057897070966845
-0.6352616338681532 -0.771095210909172 0.04306776344440662
-0.6010518306061741 -0.7986180892237287 0.0307545848550615
-0.568944916963382 -0.8221125520298409 0.02079983789628536
-0.5389422679373742 -0.8422425534149895 0.01298895867716439
-0.510936051256855 -0.8595895729849901 0.007079374374511706
-0.4847305661864418 -0.8746589289246808 0.00283482925431328
-0.4604511599454745 -0.8876850345967341 9.304763039535598e-05
-0.4410152310782373 -0.8974988853623711 -0.001147488697022632
0 0 0
0 0 0
0 0 0
-0.3658262158442259 0.9303203917979835 0.02598361803019934
-0.3956301370953935 0.9180151840841131 0.0269242718172901
-0.4184355786514402 0.9077577708604754 0.02979087043130182
-0.4420366525008935 0.8963218067606477 0.0347967896670372
-0.4673868594807996 0.883044119397196 0.04222092825489629
-0.4948800809995827 0.8673816631888484 0.05237132606296119
-0.5248752268009658 0.8486533960217407 0.06552411549498738
-0.5576660342562224 0.8260147684985077 0.08190358025931226
-0.5934386716926024 0.7984349803941527 0.1016470610628164
-0.6322196351817331 0.7646810569106505 0.1247445954447987
-0.6737990039537586 0.7233305729408082 0.1509562337899438
-0.7176302492521732 0.6728366388961922 0.1797155605871069
-0.762721991807932 0.6116699950719161 0.210035664450736
-0.8075527817341064 0.5385568906608141 0.2404474583672319
-0.8500563117493771 0.4528089775753585 0.2690135622644395
-0.8877320904882515 0.3546964645671332 0.2934657621272614
-0.9179194685852794 0.2457567120020504 0.3114923557618371
-0.9382177064241322 0.1288900376922396 0.3211462183117422
-0.9469535821028259 0.008122330689310583 0.3212677093745953
-0.9435376997161564 -0.1119666258523365 0.3117692799324311
-0.92856868653099 -0.2269893973380283 0.2936596803959133
-0.903648284143447 -0.3334190657773892 0.2687964009073339
-0.8709962443258062 -0.4289736381768284 0.2394726709244194
-0.8330181138805581 -0.5126587735391076 0.2079947207509235
-0.7919560588747977 -0.5845511638343379 0.1763676208135103
-0.7496810674326759 -0.6454637758836045 0.146132854468401
-0.7076192173912288 -0.6966141695833075 0.1183374070798554
-0.6667709877012498 -0.7393631111157826 0.09358760538174855
-0.6277789944123401 -0.7750414225046517 0.07214102561369728
-0.5910102681167638 -0.8048542597493573 0.05400447707240694
-0.556632780057959 -0.8298417834955907 0.03902002729117764
-0.5246757758582202 -0.850875981170343 0.02693315605308458
-0.4950706926556667 -0.8686775812374022 0.01744331186942333
-0.4676764620570543 -0.8838403841710823 0.01024217487202682
-0.4423057868089177 -0.8968501204182714 0.005045043218435383
-0.4187548550261104 -0.9080978888032771 0.00161113099759827
-0.3963371793053114 -0.918104980096461 -0.0002929545793625117
-0.3679843655610213 -0.9298315032988146 -0.0009392420978569329
0 0 0
0 0 0
-0.3348102246185451 0.9419192214996673 0.02627344020753813
-0.3508678725131983 0.9359930915364014 0.02843709960933078
-0.3701731923315369 0.9283921672520097 0.03255443847150381
-0.3915767572462624 0.9193178216051964 0.03901776599931456
-0.4151028863010572 0.9084945889725591 0.04824080836917603
-0.4410121597572778 0.8954504157729587 0.06063685214665925
-0.4696603050275182 0.8795172962747568 0.07660628848207926
-0.5014111520281136 0.8598095019051918 0.09651153845724975
-0.5365701896088927 0.8351890501422049 0.1206303533346312
-0.5753124756502793 0.8042331114763887 0.1490793673388539
-0.6175849692122353 0.7652268587059495 0.181704872026444
-0.662976731858348 0.7162138666250253 0.2179439154196645
-0.7105666685549571 0.655144482761132 0.2566723908922769
-0.7587813504000818 0.5801623127533009 0.2960786266277398
-0.8053243040426912 0.4900445645447207 0.3336301696164924
-0.8472613396767499 0.3847479237111635 0.3662202308572087
-0.8813363585484691 0.2659105428865852 0.3905608867798784
-0.9045195178196693 0.1370716787640508 0.4038016799916478
-0.9146594209515442 0.003387323963496501 0.4042111696885075
-0.9109985779051982 -0.1291911404420155 0.3916519376768069
-0.8943244442374343 -0.2550235860842792 0.3676231208454086
-0.8666956917629909 -0.3697508338760165 0.3348475753644641
-0.8308899420233835 -0.4707958280055726 0.2966027521398357
-0.7898146601368373 -0.5573332600600249 0.2560711617183707
-0.7460678517732384 -0.6298966709511964 0.2159003114288275
-0.7017125567782055 -0.6898621087592318 0.1780161749899683
-0.6582316591454505 -0.7389861724263794 0.1436332825679206
-0.6165922866977387 -0.7790767410261161 0.1133727638234976
-0.5773551415960374 -0.8118001731163755 0.0874157846206359
-0.540787091585791 -0.8385938430555736 0.06564821371115154
-0.5069564359550248 -0.8606465084112884 0.04777823357174074
-0.4758048619518656 -0.8789155927545459 0.03342325770912456
-0.4471986314238448 -0.8941598414485012 0.02217119738378305
-0.4209690588975852 -0.9069726921646595 0.01362303631612481
-0.3969611354077159 -0.9178053946761838 0.007423912655116501
-0.3751141995547719 -0.9269727868368789 0.00328477643872991
-0.3556008182389521 -0.9346374052365151 0.0009893434901441431
-0.3397056135615142 -0.9405317559222929 0.0003349873474119986
0 0 0
0 0 0
-0.2911736239086963 0.9562611975893557 0.02797217769226299
-0.3025665901710013 0.9526352236794506 0.03065271794630469
-0.3186547004043378 0.9471979317550291 0.03571078253435745
-0.3374347142714559 0.9403435779422007 0.04349447122797159
-0.3585294549757902 0.9319282001767917 0.05446521486240474
-0.3821030440370105 0.9215306578143777 0.06912677083337676
-0.4085207770094301 0.9084963895371074 0.08800616427075553
-0.4382165788137146 0.8919117991626804 0.1116224554791442
-0.4716143088022055 0.8705512140560887 0.1404297954085501
-0.5090478113892148 0.8428177828082573 0.1747240988015756
-0.5506515182279402 0.8067040546568141 0.2145028523668621
-0.596207039456246 0.7598120227768198 0.2592737089382863
-0.6449475056615962 0.6994908893544962 0.3078233432521654
-0.6953490989353571 0.623162341026662 0.3579920771971866
-0.7449821052952849 0.5288841459916672 0.4065503940576976
-0.7905394833979887 0.4161199774566938 0.4493233685779997
-0.8281703532793628 0.2865229007827008 0.481703740151767
-0.8541608993962275 0.1443642293967196 0.4995679405379395
-0.8658111648205004 -0.003783236073455796 0.5003565868428037
-0.8621587447811191 -0.1502125018211324 0.4838579368927213
-0.8441948049132053 -0.2877105908628324 0.4522806067729569
-0.8144750690697536 -0.4109505167487367 0.4095729906228749
-0.7763572186595999 -0.517121331992861 0.3603539885072156
-0.7332299196862058 -0.6057491571550248 0.3089366334427444
-0.6879880446002368 -0.6780329279935239 0.2587349977171062
-0.642810566813581 -0.7360820571838074 0.2120796555185251
-0.5991652732723778 -0.7823011121920819 0.1703113183774583
-0.5579306587219226 -0.8189977191823126 0.1340004329556083
-0.5195505615002041 -0.8481863571038998 0.1031848713118229
-0.4841749718139886 -0.8715257165980549 0.07757268834563966
-0.4517700145021548 -0.8903312183006086 0.05669370085006249
-0.4221966035551919 -0.9056211746889509 0.04000394857341012
-0.3952660733144264 -0.9181711448035492 0.02695329547075389
-0.3707869056399064 -0.9285618517259581 0.01702815683632341
-0.3486265204676577 -0.9372107147807646 0.009778820314415331
-0.3288368031583677 -0.9443743628284981 0.004839392611949521
-0.3119863840226248 -0.9500845885697216 0.001941841082425977
-0.3002122811418385 -0.9538720208237541 0.0008684130472977565
0 0 0
0 0 0
-0.2394827970127012 0.970421922757563 0.03048412318711758
-0.2497080708998693 0.9677485011899025 0.03329741389601194
-0.2635594577670874 0.9638529760189347 0.03903655774989737
-0.2796321139981701 0.9589074506987637 0.04798314094879187
-0.2977775347380276 0.9527102348485333 0.06059495210159568
-0.3182520635418161 0.9448371368683921 0.07744939538637033
-0.3414791183816845 0.9346393700567749 0.09920312318239566
-0.3679621871092029 0.9211889583486029 0.1265493258552854
-0.3982281948166709 0.9031973854254313 0.1601523893475206
-0.4327584792898555 0.878921942891403 0.2005400630964606
-0.4718820329018178 0.8460830591806638 0.2479330635311399
-0.5156120706969379 0.8018373604106032 0.3019950993002559
-0.5634183059607429 0.7428826345981472 0.3615040853446078
-0.6139555620576199 0.6658015185190815 0.4239892755202617
-0.664823402707061 0.5677479556314042 0.4854607111696734
-0.7125045595824425 0.4474861951428148 0.5404566196567819
-0.7526728819755928 0.306556337879874 0.5826720728198967
-0.7809807160605686 0.1500273365648055 0.606268026061734
-0.794171374956082 -0.01381720323734759 0.6075367578139311
-0.7910462076066912 -0.1751045728084847 0.5861606315786049
-0.7727650139660394 -0.3247247577085285 0.5453329853595908
-0.7423293168486752 -0.4562863502619016 0.4906627680104247
-0.7035894391237743 -0.5668680389339789 0.4285119923510158
-0.6602937297803724 -0.6565798304732855 0.3645752550961124
-0.6155021995738773 -0.7275120781406371 0.3031224479962016
-0.5713953027566857 -0.7826651682119846 0.2468656364407587
-0.5293444152340483 -0.8251716722621735 0.1971958451808017
-0.490093787361815 -0.8578598959031963 0.1545460403579085
-0.4539541632842777 -0.8830784712005078 0.1187351310229816
-0.4209628938161312 -0.9026778485140283 0.08923532838530207
-0.3909999026428321 -0.9180672618942803 0.06535731612630606
-0.3638656234481671 -0.93029664030335 0.04636775941293153
-0.3393326179192455 -0.9401369142517658 0.03155878447023102
-0.3171851246025838 -0.9481466660434423 0.02028537407956328
-0.2972649670108753 -0.9547198293471548 0.01198277260745345
-0.2795606297405659 -0.960108210026977 0.006170845797112582
-0.2644525717670484 -0.9643955741930846 0.002452297409360035
-0.253556427714792 -0.9673204484259615 0.0005366763545181672
0 0 0
-0.1453820171109414 0.9888542940530114 0.03211314736480605
-0.1766245815074784 0.9837420298845736 0.03248654869151434
-0.1922023594756364 0.9807061975982841 0.03568763097086559
-0.2051579925912489 0.9778214176477551 0.04213636511687987
-0.2184992491728457 0.9744421109648891 0.05215985514927127
-0.2331966129401662 0.9701686930736209 0.06627251838474267