# OOMMF: rectangular mesh v1.0
# Segment count: 1
# Begin: Segment
# Begin: Header
# Title: 
# Desc: time = 4.08e-09
# Desc: stepsize = 2.957699155056355e-14
# Desc: step = 26110
# meshunit: m
# valueunit: (none)
# valuemultiplier: 384000.0000000001
# xmin: 0
# ymin: 0
# zmin: 0
# xmax: 9.357999999999999e-08
# ymax: 9.357999999999999e-08
# zmax: 2.3395e-08
# ValueRangeMaxMag: 1
# ValueRangeMinMag: 0
# meshtype: rectangular
# xbase: 1.16975e-09
# ybase: 1.16975e-09
# zbase: 1.16975e-09
# xstepsize: 2.3395e-09
# ystepsize: 2.3395e-09
# zstepsize: 2.3395e-09
# xnodes: 40
# ynodes: 40
# znodes: 10
# End: Header
# Begin: Data Text
0 0 0
0 0 0
0 0 0
0 0 0
0 0 0
0 0 0
0 0 0
0 0 0
0 0 0
0 0 0
0 0 0
0 0 0
0 0 0
0 0 0
0 0 0
0 0 0
-0.9868360762061072 0.1612216341856134 0.01273355286844475
-0.991421560285072 0.1299812415975209 0.0137173843964335
-0.9960384137557945 0.08776217522426469 0.01432755815711743
-0.9990411038867792 0.04129100240710781 0.01455767374621207
-0.9998733396038013 -0.006373472393544837 0.01458367577770913
-0.9984890591778834 -0.05296418203806734 0.01464220349206034
-0.9953298917985864 -0.09535858118594072 0.01500491540854535
-0.9918154310803852 -0.1266930586215361 0.0158435970647089
0 0 0
0 0 0
0 0 0
0 0 0
0 0 0
0 0 0
0 0 0
0 0 0
0 0 0
0 0 0
0 0 0
0 0 0
0 0 0
0 0 0
0 0 0
0 0 0
0 0 0
0 0 0
0 0 0
0 0 0
0 0 0
0 0 0
0 0 0
0 0 0
0 0 0
0 0 0
0 0 0
0 0 0
-0.9282785619998513 0.3715857756724036 0.01493059440966104
-0.9395133668089327 0.3421335077912809 0.01610268405504844
-0.9535245786010698 0.3008620315659953 0.01652016845052414
-0.9676028019563244 0.2519680275134041 0.01602905977510017
-0.9812523555698118 0.1921322146551366 0.01513363077411767
-0.9896158936682379 0.1428914611360174 0.01556962856423139
-0.9954562325299077 0.09385298328527431 0.01607814186452641
-0.9989099792589455 0.0437208846709067 0.01635046117042614
-0.9998412733939297 -0.006942794979354869 0.01640809604673716
-0.9982240560606008 -0.05727622418980072 0.01637583721467433
-0.9941576211678561 -0.1066895439583475 0.01636965130442801
-0.987552446299894 -0.1564449815646997 0.01628292204474155
-0.9760738561669563 -0.2169034762816313 0.0152548118412182
-0.9636812910069208 -0.2667042071725787 0.01368339284241806
-0.9510065905380156 -0.3089051415189012 0.01280930507271427
-0.9406933941719354 -0.3390055120864117 0.01308437756688356
0 0 0
0 0 0
0 0 0
0 0 0
0 0 0
0 0 0
0 0 0
0 0 0
0 0 0
0 0 0
0 0 0
0 0 0
0 0 0
0 0 0
0 0 0
0 0 0
0 0 0
0 0 0
0 0 0
0 0 0
0 0 0
0 0 0
-0.879123593420562 0.4763910821710562 0.01390123444905971
-0.8941543982084076 0.4475098303811315 0.01492862608582962
-0.9159378778638559 0.4010107242015067 0.01575445872249157
-0.933347496900246 0.3585692735078609 0.01704482695978907
-0.9495862317382687 0.312988701285504 0.01800170438397543
-0.9645712298283197 0.2631740398880022 0.01848694989743803
-0.9777594706561253 0.2088832900079498 0.01881990163915579
-0.9876689041484897 0.1553445767796088 0.01944731969410792
-0.9946215187614933 0.1016199574616945 0.02003543516031455
-0.9986707699754048 0.04734834302827926 0.02036731718238425
-0.9997655625662903 -0.007270338819368046 0.02039514844171806
-0.9978814142026502 -0.06185875141562037 0.02015385973501892
-0.9930307481814415 -0.1162021851447543 0.01967194280669835
-0.9851533491943517 -0.1706366360780101 0.01886841273482586
-0.9739567862945652 -0.226053940521217 0.01754407038267542
-0.9606876005817878 -0.2771715838037411 0.01597645831003684
-0.9459003521905872 -0.3241199405448014 0.01479147953914334
-0.9297592020145136 -0.3678922773471315 0.01425126442374358
-0.9094319493901685 -0.4156185758166472 0.01395452845993562
-0.8952665860098175 -0.4453083361335226 0.01407926646949982
0 0 0
0 0 0
0 0 0
0 0 0
0 0 0
0 0 0
0 0 0
0 0 0
0 0 0
0 0 0
0 0 0
0 0 0
0 0 0
0 0 0
0 0 0
0 0 0
0 0 0
0 0 0
0 0 0
-0.8417891294210971 0.5396176286813277 0.01427852950452087
-0.8630135285727427 0.5049586947888126 0.0149788536811672
-0.8837515661793536 0.4676672424470067 0.016447480583706
-0.9053331582867017 0.4243146273209832 0.01813751769345327
-0.9252545604474885 0.3788184249884784 0.02001497590237783
-0.9435832893923189 0.3304190555097912 0.02176749263438226
-0.9600863436043152 0.2787352066408364 0.02325720110818067
-0.9742972878512081 0.2239251469785237 0.0245422785500067
-0.9855298746389727 0.1675433601673481 0.02569219060189831
-0.9935734089395355 0.1100278310455069 0.02656609575551501
-0.9982978090057654 0.05168360955779818 0.02702386051926813
-0.9996101634842079 -0.007100311508269752 0.02700197466038221
-0.997475282154289 -0.06588544024277528 0.02649849533909927
-0.9919207027379584 -0.1242634680646914 0.02553252796668663
-0.9830234262502553 -0.1818886920016343 0.02411321557035608
-0.9709469365661937 -0.2382555489053396 0.02227868462315934
-0.956289196438059 -0.2917203012005491 0.0202543487506165
-0.9395101009110866 -0.3420274351584728 0.01838488196741801
-0.9208884718240928 -0.3894609895924938 0.016868907703866
-0.9004568056375005 -0.4346618151588973 0.01570501906653278
-0.8806466242960399 -0.4735355339746034 0.01502069170764894
-0.8604432715210466 -0.5093317089923165 0.01478467818804691
0 0 0
0 0 0
0 0 0
0 0 0
0 0 0
0 0 0
0 0 0
0 0 0
0 0 0
0 0 0
0 0 0
0 0 0
0 0 0
0 0 0
0 0 0
0 0 0
-0.7682188346611102 0.640004526728371 0.01529796846378696
-0.7886817807154538 0.6145938450333381 0.01598294136375598
-0.8198007235877185 0.5724206044948671 0.01616864727746875
-0.8456447388226446 0.5334566734741431 0.01757706538310128
-0.8698276997089124 0.4929583972843416 0.01979372036669473
-0.8933123834668291 0.4488759177695442 0.02243648794624216
-0.9154750986314285 0.4015797133930652 0.02527998372070725
-0.9359647588707996 0.3509717359410389 0.02808577437883611
-0.9543800612662521 0.2970142493399619 0.03067954280042573
-0.9702278226805703 0.2399405757710561 0.03296198105656367
-0.982966528183582 0.1804517082222801 0.03484229427543102
-0.9922165180302945 0.1191520259725294 0.03618253797730405
-0.9977148221973886 0.05662792593208986 0.03685663538987792
-0.9993017036449502 -0.006503238568650429 0.03679419764608013
-0.9969257150210071 -0.06959931097648529 0.03598686762489033
-0.9906480313474448 -0.1320147538257409 0.03447582863050755
-0.980644652376337 -0.1931062078917204 0.03234282361470794
-0.9672224981596429 -0.2521845354996402 0.02972539501250836
-0.9508634842849429 -0.3084442673487114 0.02684712634927494
-0.9320475432696123 -0.3615421239486483 0.02397226930809233
-0.9112040985515766 -0.4114040314778151 0.0213029027742538
-0.8887458652925952 -0.4580085203223589 0.01894682657962713
-0.8653615263145593 -0.5008610766934305 0.0169590868867726
-0.8402847680024914 -0.5419316261695566 0.01521910707690938
-0.8102174752531243 -0.5859783475326054 0.01330484939446369
-0.7902895508416276 -0.6126065216154398 0.01247699902899166
0 0 0
0 0 0
0 0 0
0 0 0
0 0 0
0 0 0
0 0 0
0 0 0
0 0 0
0 0 0
0 0 0
0 0 0
0 0 0
-0.7212181840458168 0.6925609023104647 0.01427331750393519
-0.7463376525026854 0.6653891846368208 0.01540588930009355
-0.7718015348094027 0.6356362089732573 0.01700002082219052
-0.7998888554183907 0.5998503632556907 0.0189039858091298
-0.8271265969484504 0.5616006282896282 0.02159460407532288
-0.8535797039246452 0.5203612881963392 0.02501637053132367
-0.8792740732607429 0.4754363392914263 0.02893771540099043
-0.9037901581171673 0.4266929413395872 0.03311319829790928
-0.9266482282790574 0.3740756423547567 0.03728907110882786
-0.9473140368485725 0.3176418818951096 0.0412280299771169
-0.9652030169506514 0.2576499295079699 0.04471744507346026
-0.9797247328864719 0.1946223515739635 0.0475561566818795
-0.9903776856856586 0.1292158223119654 0.04955109443958089
-0.9967837071242056 0.06218654980394553 0.0505477421375738
-0.9987101805214921 -0.005634971895725384 0.05046010715864734
-0.9960856455666577 -0.07337935804803623 0.04928343036469958
-0.9890057878144788 -0.1401780464438993 0.04709211149049963
-0.9777288944628808 -0.2052008585757175 0.04403199486941664
-0.9626622092011575 -0.2676868838181695 0.04031380914356741
-0.9443343550655149 -0.326989420310111 0.03620144815134766
-0.9233114092754662 -0.3827188590368885 0.03197368354215968
-0.9001507332919551 -0.4346859335163206 0.02787107025214406
-0.875391087578109 -0.4828158927666417 0.0240677685040729
-0.8495407940922076 -0.5271178231439533 0.02066977738537095
-0.8227119517451047 -0.5681825694534179 0.01770910006386841
-0.7949813748072257 -0.6064421132971978 0.01525047308253465
-0.769767202495788 -0.638175931769386 0.0137816570877305
-0.7451417195470522 -0.6667710654378363 0.01342252157211793
0 0 0
0 0 0
0 0 0
0 0 0
0 0 0
0 0 0
0 0 0
0 0 0
0 0 0
0 0 0
0 0 0
-0.6678540715937749 0.7441664570976382 0.01368295239943774
-0.694723037097576 0.7191256858055749 0.01476989304567103
-0.7215028690323548 0.6922085060762263 0.01676287844611158
-0.7489402496011413 0.6623499248272081 0.01952126042988173
-0.7774810125385356 0.6284860251799065 0.02299111340528469
-0.8061872601030002 0.5910316120536828 0.02727150895791874
-0.8347120925433916 0.5497378735041146 0.03231088047400802
-0.8627455533966272 0.5042140343233464 0.03792515900720565
-0.8898037728410799 0.4542307994049634 0.04385916904943177
-0.9152961079010379 0.3996892863791472 0.04981474896994737
-0.9385536231223451 0.3406463030486409 0.05547245030834558
-0.9588563850109104 0.2773683420433686 0.06050814619471368
-0.9754843280875655 0.2103715584102858 0.06460753104381785
-0.9877926549209615 0.1403956148731798 0.06748883025049066
-0.9952757470978724 0.06836567458392677 0.06893708564666759
-0.9976170984131779 -0.004661607371261275 0.06883599618213659
-0.9947207946937513 -0.07756697270694961 0.06718560373257376
-0.986720315172964 -0.1492442912644931 0.06410273902045907
-0.9739633845491035 -0.2186742601196035 0.0598071360190283
-0.9569749158993407 -0.2849879416900744 0.05459746725539625
-0.9364016120763226 -0.3475179896322341 0.04881872369116253
-0.9129410337142598 -0.4058387125177851 0.04282065369240026
-0.8872878867102663 -0.4597361881928977 0.03691670845421589
-0.8601001382915375 -0.5091604492103843 0.0313590349143088
-0.8319634555187992 -0.5542051141321162 0.02633439103200285
-0.8033191222820233 -0.5951430312469639 0.02198090385344721
-0.7746509083424108 -0.6321200346793838 0.01844537777362774
-0.7470103412080334 -0.6646212893163227 0.01594026084371295
-0.7201719838692443 -0.6936435341805923 0.01452450134405804
-0.6936648532374237 -0.7201606617695782 0.01406032086070915
0 0 0
0 0 0
0 0 0
0 0 0
0 0 0
0 0 0
0 0 0
0 0 0
0 0 0
-0.6136997263267189 0.789436065296276 0.01278063832691162
-0.6392718558761671 0.768852027145087 0.01407318867671811
-0.6657298424248368 0.7460164257019399 0.01622558128091083
-0.6932710185557254 0.7204164668613863 0.01937547691448289
-0.721919312643866 0.6915768788359771 0.02353564724616232
-0.751623977397141 0.6589671999039677 0.02869888590913985
-0.7819804749193185 0.6223273251468936 0.03486025273099529
-0.8126246652321181 0.5812770028144193 0.04193088903747631
-0.8431361861910899 0.5353968412690266 0.04971512741904761
-0.8729525718148983 0.4843540077142299 0.05792238404035146
-0.9013734734422987 0.4279550900857158 0.06618385183933893
-0.9275835664712162 0.3661993430575789 0.07407272343268982
-0.9506913316003909 0.2993391146573772 0.08113005889319112
-0.969792735732922 0.2279266539958183 0.08689931022697713
-0.9840580241349267 0.1528201185390289 0.09097151480205329
-0.9928226341666043 0.07514920616215892 0.09303662665682466
-0.9956656879695932 -0.003759251754746995 0.09292849846134767
-0.9924607450848428 -0.08248684878499932 0.09065091970387605
-0.9833884753711331 -0.1596431761789079 0.08637802270686445
-0.9689091160021451 -0.2339790053407266 0.08042978296442932
-0.9497013989415365 -0.3044745893374036 0.07322893756096371
-0.9265812636608162 -0.370391493500523 0.06524801433895484
-0.9004166982396475 -0.4312839319626129 0.05695559289551077
-0.8720583174422759 -0.4869656990091698 0.04877190757246064
-0.842290544124462 -0.5374589874382918 0.04104236957490462
-0.8117972480435161 -0.5829468823775676 0.03403175568858773
-0.7811458238817339 -0.6237232662999241 0.02793723157867148
-0.7508588641717368 -0.6600650488248268 0.02291500413720027
-0.7215058100341513 -0.6921450764651499 0.01909343374080964
-0.6933395126349409 -0.7204215140284711 0.0165276236666816
-0.6665630798725681 -0.7452934579541809 0.0152092761660503
-0.6412287873373814 -0.7672005590765929 0.01513091016409114
0 0 0
0 0 0
0 0 0
0 0 0
0 0 0
0 0 0
0 0 0
0 0 0
-0.5870698721781719 0.8094214286958422 0.01363509987809455
-0.6075526703793813 0.7941265674957918 0.01558035661446473
-0.633259723115826 0.773711520308724 0.01877781725412864
-0.6612390842929871 0.7498147839371946 0.02325216533120157
-0.6908244190127567 0.7224391156123137 0.02904042577140626
-0.7217768769521674 0.6911810753210582 0.03615053270977592
-0.7538206003056472 0.6555684062103323 0.04454848295596435
-0.7866191295508487 0.6150623046239758 0.05411752447505494
-0.819717943229463 0.5691093567866549 0.06462997420344571
-0.8524926211963978 0.5172235855388586 0.07573700131389677
-0.8841355156036331 0.459064635488599 0.08697154990005057
-0.9136711376227548 0.3945213000895234 0.09776500422345792
-0.9400014042813007 0.3237980393873702 0.1074811129365383
-0.9619862704928098 0.2474855166905296 0.1154700585076294
-0.9785566757030529 0.1665885532234747 0.121140770890311
-0.9888420698898426 0.0824934116596359 0.1240411135419416
-0.9922862862561743 -0.003131326148779561 0.123927885903371
-0.9887241469008263 -0.08848771316036096 0.1208076403001154
-0.978399491849006 -0.1718256200080546 0.1149364635720703
-0.9619211183473705 -0.2516068852875024 0.1067789181124487
-0.9401700706512111 -0.3266241168616433 0.09693773535650402
-0.9141829408004771 -0.3960570176280711 0.08607200205030872
-0.8850377443975673 -0.4594670353305096 0.0748213501365589
-0.8537628328279629 -0.5167446921863971 0.06374910492514345
-0.8212760705702505 -0.5680348568129138 0.05331057450657475
-0.7883525041300504 -0.613659416929948 0.04384574375095397
-0.7556218341775679 -0.6540404790143212 0.03559066626019997
-0.7236073091653875 -0.689615010224894 0.02869842844034537
-0.6927781562490342 -0.7207756624562836 0.02325662561279591
-0.6635789903741297 -0.7478573514723076 0.0192952165801633
-0.6368908732429108 -0.7707705227060504 0.01681716109585456
-0.6158710730308653 -0.7876878978990831 0.01583025290807106
0 0 0
0 0 0
0 0 0
0 0 0
0 0 0
0 0 0
0 0 0
-0.5103858473301573 0.8598116998875709 0.01516995654318787
-0.5430152016599421 0.8395780843007997 0.01559266263378685
-0.5693051784929049 0.8219273114926217 0.01808613733421077
-0.5963125475680702 0.8024406550011954 0.02236829931241244
-0.6249451243802189 0.7801541628125642 0.02833855606094262
-0.6553167976336328 0.7544954647505229 0.03600678283452284
-0.6873884986900999 0.7248703305546834 0.04538783702836637
-0.7210073747447028 0.6906243818853265 0.05644757487493766
-0.7558950027502567 0.6510405714322454 0.06905736142051963
-0.7916037521334924 0.605377415174992 0.08295592085090024
-0.8274694397206246 0.5529418298936978 0.09772235712591019
-0.8625842657459077 0.4931861574025588 0.1127643500140488
-0.8958010428400186 0.4258262532705488 0.1273282909345007
-0.9257801536692968 0.3509696374356425 0.1405397476529184
-0.951088977335904 0.2692277275025014 0.1514799918602542
-0.9703519047130871 0.1817749532194648 0.1592954720064081
-0.9824295222516133 0.09032011215480913 0.1633233331426016
-0.9865877856969849 -0.003025989260040371 0.1632035064038686
-0.9826119141533675 -0.09597049789863143 0.1589449266159295
-0.9708320115602898 -0.1862980599841398 0.1509246109020876
-0.9520547372744772 -0.2721069493409235 0.1398198317607406
-0.927424797835697 -0.3519691762947859 0.1264948350636725
-0.8982575069910834 -0.4249912884109703 0.1118742861829586
-0.8658831516523081 -0.4907848382038884 0.09683289871654419
-0.8315298345413864 -0.5493765439503056 0.08211910389666881
-0.7962530635719636 -0.6010938470621233 0.06831724362354183
-0.7609077353372833 -0.6464526369282624 0.0558426943510263
-0.7261546860041682 -0.6860597961271008 0.04495918295774864
-0.6924931412958319 -0.7205353322992299 0.03580620290771242
-0.6602971375424864 -0.7504663196311798 0.02842522211751394
-0.6298282018087233 -0.7764004522555542 0.02277660957561917
-0.6012038230890234 -0.7988759671789429 0.01873905459329141
-0.5737911440737535 -0.8188444678618411 0.01604557367596187
-0.5410320005752502 -0.8408822099499879 0.01419448284251532
0 0 0
0 0 0
0 0 0
0 0 0
0 0 0
-0.4463201485399435 0.8947558613765971 0.0145008116843848
-0.4745737111421422 0.8800804300873674 0.01543467751552418
-0.5019404316637905 0.8647276430592226 0.01737545367489981
-0.5282502495413088 0.8488265487425996 0.02109891014417065
-0.5554003883350976 0.8311516286934173 0.02678392722327417
-0.5842123294453404 0.810866968911905 0.03450670734318021
-0.6149992956700691 0.7872795539060166 0.04434828437337718
-0.6478670894563796 0.7596647270426761 0.05637141905695842
-0.6827771365159957 0.7272101395799513 0.0705747457885956
-0.7195317057344104 0.6890084468758926 0.08684172140509311
-0.7577245046453502 0.6440899619724452 0.1048889696121192
-0.796681000589758 0.5914970865660539 0.1242198852163833
-0.8354104307430236 0.5304023174257273 0.1440930042547977
-0.8725906992449863 0.4602682669994534 0.163519399413234
-0.9066093562362014 0.3810348202569233 0.1813062076619379
-0.9356806634989331 0.2932968593325492 0.1961597518856971
-0.9580424342133689 0.1984157252864681 0.2068475143809242
-0.9722065741738366 0.09850407113685691 0.2123942680550416
-0.9772052706996827 -0.003750220096269377 0.2122635031417058
-0.9727599757449292 -0.1054015724504802 0.2064667966373535
-0.9593179614236895 -0.2036283797230869 0.1955620920864935
-0.9379472846667527 -0.2960738002186016 0.1805413969436942
-0.9101309524444257 -0.3810608824594066 0.1626476352790294
-0.8775279250702052 -0.4576513620296337 0.1431781112963875
-0.8417630373013792 -0.5255724232343784 0.1233232215306563
-0.8042812094950397 -0.5850659878579184 0.1040650080720393
-0.7662721677870797 -0.6367161957788079 0.08613623458133944
-0.7286531894101694 -0.6812935500107061 0.07002591146280479
-0.6920910520525516 -0.719633643899018 0.05601244716501088
-0.6570439141232551 -0.7525549865894603 0.04420731922350418
-0.6238016294612698 -0.7808166291058598 0.03459651417738694
-0.5924996139109088 -0.8051157205438904 0.02707183127376657
-0.5630625862008163 -0.8261358758868865 0.02144851028519965
-0.5349194320196673 -0.8447223033725171 0.01747659671631692
-0.5064376910057851 -0.8621475019272048 0.01491811145583078
-0.4779043830622223 -0.8783023094715185 0.01387277286314765
0 0 0
0 0 0
0 0 0
0 0 0
-0.4166049790836543 0.9089736067577349 0.01439700040084314
-0.4356812487447071 0.89995607413304 0.01615283638554657
-0.4590789047696939 0.8881834598676326 0.01940878185304735
-0.4839514000488679 0.8747503420566588 0.02455364458686831
-0.5103731698682052 0.8593619985326506 0.03187762470210393
-0.5387589385946004 0.8414322296639641 0.04160058854329599
-0.5694293886570966 0.8202704435986999 0.05391262089712062
-0.6025864682552327 0.7950682964090831 0.06896341291469792
-0.6383047944634191 0.7648719160099453 0.08682131918075751
-0.6764921280023347 0.7285742568968223 0.1074148636740517
-0.7168218767820356 0.6849421587977791 0.1304631598119453
-0.7586500663951937 0.6326926155498266 0.1554031241233161
-0.8009363392427751 0.5706323040942876 0.1813277529900651
-0.8421971847321172 0.4978673863511749 0.2069588549377507
-0.8805283291811611 0.4140703058055509 0.2306851606834075
-0.9137332558541584 0.3197556264692382 0.2506947875154636
-0.9395745869206343 0.216478559955794 0.2652105365410363
-0.9561198629061973 0.1068531656490379 0.2727951772796086
-0.9620975308749953 -0.005678900827119086 0.2726464582011522
-0.9571470626145567 -0.1173086429490211 0.2647794984846525
-0.9418713793456411 -0.2244244127995405 0.2500239742687091
-0.9176767147215315 -0.3241054728836878 0.2298370938398277
-0.8864691431222949 -0.4144078132995861 0.2060063653586439
-0.8503175755113167 -0.4944045088603798 0.1803446766474743
-0.8111762870594865 -0.5640354745418065 0.1544571616040636
-0.7707114211205884 -0.6238627416939018 0.1296116695380885
-0.7302297663091282 -0.6748176402982444 0.1067035179290008
-0.6906827880171733 -0.7179917961627529 0.08628480155744353
-0.6527135857522367 -0.7544901506451029 0.06862643480457715
-0.616719433788927 -0.7853431961382183 0.05378851426161842
-0.5829092445247797 -0.8114673354803369 0.04168424277820681
-0.5513416138240674 -0.8336606063652765 0.03213126609008454
-0.5219382255325159 -0.8526200048780997 0.0248920872896823
-0.4945155248469008 -0.8689451543777161 0.01971584055728985
-0.4692158402364447 -0.8829310638425742 0.0164082836709545
-0.4490598747829014 -0.8933771340242362 0.0149172806706289
0 0 0
0 0 0
0 0 0
-0.3399128826142955 0.9403590881365227 0.01356530839630733
-0.3688363843820995 0.9293776667916336 0.01472664336767326
-0.3904513172021559 0.9204599644082211 0.01735577185599327
-0.4124552567364176 0.9107166483169504 0.02181393290617914
-0.4358129003132328 0.8995885331396792 0.0284180746034567
-0.4609530268547061 0.8866314064169927 0.0375107476399734
-0.4882853705171141 0.8712834211165544 0.04942263678110384
-0.51817826687307 0.852839793751618 0.06446371021061609
-0.5509319150220772 0.8304224781349192 0.08290074075884717
-0.5867458215231266 0.8029465106480466 0.1049106379890858
-0.6256615810803176 0.769100067001138 0.1305092828074751
-0.667475935267961 0.7273575881099059 0.1594578780026257
-0.711629154082519 0.6760504702804869 0.1911536258963726
-0.7570856512829359 0.6135235220322285 0.2245221693612048
-0.8022405415508362 0.5383995952982809 0.2579457099369319
-0.8449048621657689 0.4499488087177466 0.2892781419708771
-0.8824314807881066 0.3485055738947125 0.3160040295287798
-0.912023134601581 0.235806889755391 0.3355725148092354
-0.9311990022879526 0.1150799166640242 0.3458685168073585
-0.9383023785807511 -0.009254692190628973 0.3456920551909766
-0.932867796969731 -0.1322504276638005 0.3350634234881241
-0.9156964948220291 -0.2492731929358205 0.3152186616528755
-0.8886159844482384 -0.3567160725691066 0.2882972003921636
-0.8540394727578605 -0.4523711288882935 0.2568597685894111
-0.814500319849188 -0.535418757190486 0.2234188519668048
-0.7722970028054935 -0.6061484197872319 0.1901090020148768
-0.7292989204900172 -0.6655753436211259 0.1585324778577398
-0.6868936177011683 -0.7150822958449083 0.1297477095388412
-0.6460256720486782 -0.7561503391183945 0.1043431631933291
-0.6072783367667629 -0.7901894193842304 0.08254515847102216
-0.570963088496537 -0.8184517844225241 0.06432595238378591
-0.5371970495266792 -0.8420032769746366 0.04949557095138218
-0.5059598453796963 -0.8617295555445916 0.03777311165728046
-0.4771318714194885 -0.87835835263242 0.02884062476086855
-0.4505299307609758 -0.8924806358867575 0.02238517490837105
-0.4259401883453867 -0.9045697533537248 0.01812504537586877
-0.4026258562203868 -0.915228693318877 0.01577526001752578
-0.3732229115902401 -0.9276206984812849 0.0149832577631292
0 0 0
0 0 0
-0.3097755141521089 0.9507165911755938 0.01330767054200293
-0.3250213362844324 0.9455829477362614 0.01529770931492211
-0.3429790725633002 0.9391526415605044 0.01891220858452809
-0.3625611068480564 0.9316369986254036 0.02453459992258252
-0.3838215929445668 0.922832158341194 0.03258515491490003
-0.407041385590021 0.9123735348961406 0.04349532432429822
-0.4326024612033758 0.8997360959750981 0.05770674276261076
-0.4609164939326774 0.8842123656166855 0.07566028093624981
-0.492378196332213 0.8648730033603514 0.09776706927734692
-0.5273183795693626 0.8405186065886132 0.124353522453837
-0.5659351401285785 0.8096382474040658 0.1555741800817799
-0.6081907637221846 0.7703978025620809 0.1912883183326737
-0.6536715741681167 0.720692338129748 0.2309026350773253
-0.7014225497872496 0.6583080991983823 0.2731974618838274
-0.7497926802044126 0.5812405883912669 0.316180826614228
-0.7963596867433799 0.4881874090320152 0.3570494405437333
-0.8380289703917846 0.3791590510149261 0.3923593490890018
-0.8713889488563694 0.2560316632054757 0.4184842735960682
-0.8933187738974709 0.1227639308283418 0.4323315689258563
-0.9016943832211851 -0.01496977974849098 0.4321147358765349
-0.8959174145351735 -0.150743227722869 0.4178617781375805
-0.8770238415346445 -0.2786199375671023 0.3914078585949929
-0.8473328421226597 -0.3941820732260617 0.3558757477091392
-0.8098240524792297 -0.494997927219526 0.3149000731573272
-0.7675144729150604 -0.5805028171653085 0.2719154521704433
-0.7230236193500436 -0.6515152814766386 0.2297056461308239
-0.6783742286708215 -0.7096598919417431 0.1902399633213291
-0.634977171105409 -0.7568795551793706 0.1547169387185824
-0.5937192726901093 -0.7951054502560746 0.1237123607785885
-0.5550866850210745 -0.8260757308833331 0.09735326886078687
-0.5192833451680309 -0.85126282014765 0.07547462133305703
-0.4863269450747791 -0.8718669041850357 0.0577425655910292
-0.456120226310043 -0.8888423884431298 0.04374411569099489
-0.4285064696810641 -0.9029340461875317 0.03305016909008103
-0.4033287814604681 -0.9147064153528661 0.02526000312595467
-0.3805180565857156 -0.9245565143585788 0.02003148445184732
-0.3602380689690687 -0.9327038094030917 0.01709203295096043
-0.3437922569243901 -0.9389064561245439 0.01617252999636931
0 0 0
0 0 0
-0.2675175571516622 0.963448239574446 0.01420726140067614
-0.2780173884557253 0.960434058643189 0.0165151661944056
-0.2926197089658819 0.956002148240001 0.02082302776315834
-0.309415069102891 0.950530464337231 0.02746181674435187
-0.3280488652655942 0.9439406069518324 0.0368791613972129
-0.3486838179537342 0.9359282550245569 0.04957717765156044
-0.3716821879246341 0.9260035005671401 0.06610497800437526
-0.3974914532152199 0.9134680476941871 0.08704407195566211
-0.4265876659362969 0.8973626074768485 0.1129748377886553
-0.4594251256101722 0.8763978114617123 0.144414092190471
-0.496364886526638 0.848883200619597 0.181711890445359
-0.53756357547602 0.8126791543246233 0.2248955189585856
-0.582811556046861 0.7652146281095076 0.2734543162311834
-0.6313237852466295 0.7036361094581931 0.3260774503831946
-0.6815159970247445 0.6251677770152522 0.3803961045820206
-0.7308463243152472 0.5277413694034544 0.4328425779137935
-0.7758537678157377 0.410856908072848 0.4787980075720263
-0.8125333567100633 0.2764462564304522 0.5131929574137439
-0.8370869787966778 0.1293095854004765 0.5315678894107571
-0.8468656300342304 -0.02331413382695072 0.5312956388213856
-0.8411060753812938 -0.1731210955341218 0.5124155113164921
-0.8210862287206717 -0.3125624208138706 0.4776213333805736
-0.7896355446382387 -0.4363040004220456 0.4314099278639645
-0.7502919175761793 -0.5417846820106622 0.3788553771011633
-0.7065054758116005 -0.6288979896831757 0.3245571309040731
-0.6611361035809635 -0.6992043493356164 0.2720520729785714
-0.6162729830090452 -0.7551000877390875 0.2236771510672349
-0.573276842834289 -0.799184194415606 0.180716033782916
-0.5329259231805946 -0.8338777622787232 0.1436587553166856
-0.4955815892992974 -0.8612495855776914 0.112463503812734
-0.4613315563900115 -0.8829745427688479 0.08677068572342253
-0.4300984261267505 -0.9003619397707889 0.06605846846146106
-0.4017179831101577 -0.9144112050939612 0.04974746269424977
-0.3760018397920931 -0.9258691679791404 0.03726795216502171
-0.3528102849447385 -0.9352727589355002 0.0281028331381248
-0.3321872994901173 -0.9429610857678921 0.02181716720613734
-0.3147064262484816 -0.9490168685866069 0.01807894952642629
-0.3025516375803505 -0.9529881332570945 0.01661699336841091
0 0 0
0 0 0
-0.2176431944547232 0.9759003854957345 0.01580751393545559
-0.2268304489805833 0.9737657542235477 0.0181163825503801
-0.2390881392958261 0.9707280616993074 0.02288868448741944
-0.2530897895570818 0.9669652967627349 0.03039199365798822
-0.2686818074072296 0.9623535611265319 0.04105739586805139
-0.2860909685463294 0.9565972872985745 0.05543994633141951
-0.3057059361206076 0.9492308667069076 0.07419327672690723
-0.3280056740896625 0.9395738869841043 0.09804686972345028
-0.3535237544429501 0.9266584502962629 0.1277696033455865
-0.3828104711202746 0.9091348969582173 0.164103267284489
-0.4163703373578914 0.8851658060796835 0.2076469068293076
-0.4545551308554908 0.8523318270609276 0.2586698467002446
-0.4973947327685978 0.8075981685537666 0.3168338333616793
-0.5443583243957745 0.7474271268087354 0.3808237187616636
-0.5940681997594029 0.6681578926724452 0.4479375006562174
-0.6440477196490224 0.5667719607933372 0.5137821321079293
-0.6906652131232277 0.4420512980619298 0.5723392466563941
-0.7294806507687822 0.2958593703102842 0.6167051265828389
-0.7561041924880859 0.133915710721115 0.6406036469799383
-0.7673753675143951 -0.03466944179350427 0.6402601620731009
-0.7623336146402846 -0.1993094605055262 0.6157298100161087
-0.7424369172378603 -0.35055003409757 0.5708783561465036
-0.7109281545375533 -0.4820884270552251 0.5120272527759111
-0.6717670431140291 -0.5913914056980234 0.4460776222277343
-0.6286775016475448 -0.6790532580326932 0.3790135507833266
-0.584608304747015 -0.747591623852133 0.3151823186140868
-0.5415970537778133 -0.8003116035958118 0.2572430144612129
-0.5008798489785666 -0.840527544883087 0.2064771735083994
-0.4630919278683913 -0.8711554187447657 0.1631995794564676
-0.4284653140378299 -0.894570575520939 0.1271257648102809
-0.396985456082498 -0.912615760111788 0.09764743752169623
-0.3685019210822869 -0.9266756448019353 0.07401745395230068
-0.3428030531118626 -0.9377685166765959 0.05546418580815845
-0.3196702984173412 -0.9466302161892656 0.041256927990724
-0.2989333061937669 -0.9537787765718478 0.03073961302898876
-0.2805654048316861 -0.959550973924752 0.02334485064615899
-0.2649378145615461 -0.9640861070081475 0.01859926582491433
-0.2536912908432601 -0.9671502296557317 0.01616051444554931
0 0 0
-0.1272864314721661 0.9917299852474704 0.01642561183435383
-0.1570927589283448 0.9874398420785946 0.01686485600532247
-0.1713319169697952 0.9850208910709557 0.01947353027150513
-0.1826408150237748 0.9828678121252435 0.02476280629466964
-0.1939286164886865 0.9804584663282017 0.03305884922579561
-0.2061093200235804 0.9775011348684315 0.04483837118300574
-0.2196868855544432 0.9736783451488027 0.06073016140005926
-0.2351165399022997 0.9685444184231281 0.08149798896766888