# OOMMF: rectangular mesh v1.0
# Segment count: 1
# Begin: Segment
# Begin: Header
# Title: 
# Desc: time = 1.34e-09
# Desc: stepsize = 3.014505438813196e-14
# Desc: step = 8574
# meshunit: m
# valueunit: (none)
# valuemultiplier: 384000.0000000001
# xmin: 0
# ymin: 0
# zmin: 0
# xmax: 9.357999999999999e-08
# ymax: 9.357999999999999e-08
# zmax: 2.3395e-08
# ValueRangeMaxMag: 1
# ValueRangeMinMag: 0
# meshtype: rectangular
# xbase: 1.16975e-09
# ybase: 1.16975e-09
# zbase: 1.16975e-09
# xstepsize: 2.3395e-09
# ystepsize: 2.3395e-09
# zstepsize: 2.3395e-09
# xnodes: 40
# ynodes: 40
# znodes: 10
# End: Header
# Begin: Data Text
0 0 0
0 0 0
0 0 0
0 0 0
0 0 0
0 0 0
0 0 0
0 0 0
0 0 0
0 0 0
0 0 0
0 0 0
0 0 0
0 0 0
0 0 0
0 0 0
-0.9904836154687666 0.1361337918122972 0.02024347338590212
-0.9943449205831327 0.1041425915389823 0.02079662323713987
-0.997927772889277 0.06088285659807667 0.02081917070166527
-0.9997035102384599 0.01331778933857352 0.02038450647021572
-0.9991795320124278 -0.03538070314552724 0.01970960812276892
-0.9963767173283341 -0.08288426333513989 0.01906924375541144
-0.9918480510754949 -0.1260330818037988 0.01879111143010738
-0.9872663156250203 -0.1579178381114559 0.0191619006990711
0 0 0
0 0 0
0 0 0
0 0 0
0 0 0
0 0 0
0 0 0
0 0 0
0 0 0
0 0 0
0 0 0
0 0 0
0 0 0
0 0 0
0 0 0
0 0 0
0 0 0
0 0 0
0 0 0
0 0 0
0 0 0
0 0 0
0 0 0
0 0 0
0 0 0
0 0 0
0 0 0
0 0 0
-0.9350335145730301 0.3536543647542034 0.02531633692909216
-0.945973600247588 0.3231854240161293 0.0261749754179543
-0.959527817257678 0.2803987531173108 0.02613249239878773
-0.972946344029076 0.2296697416596712 0.0250443887215063
-0.985564081099749 0.1676860737302595 0.02334143789350703
-0.9928747112423368 0.1168929818353626 0.0231481872526342
-0.9975222821937549 0.06648458539004137 0.0230020962626493
-0.9996312334191194 0.01510188194888502 0.02256834806916594
-0.9990879740303159 -0.03666767419799607 0.02187925540112667
-0.9959040968972609 -0.08792434036266963 0.02107937748226295
-0.9902180543245332 -0.1380436107428507 0.02030188224799704
-0.981927521034874 -0.1882576597009082 0.0194267083738703
-0.9683469025667657 -0.2489986008156173 0.01743482380796566
-0.9541541018064453 -0.2989402509436822 0.01498920850688894
-0.9399032774179689 -0.3411786625248542 0.01337719465028407
-0.9284264722611665 -0.3712836510266291 0.01314291006668796
0 0 0
0 0 0
0 0 0
0 0 0
0 0 0
0 0 0
0 0 0
0 0 0
0 0 0
0 0 0
0 0 0
0 0 0
0 0 0
0 0 0
0 0 0
0 0 0
0 0 0
0 0 0
0 0 0
0 0 0
0 0 0
0 0 0
-0.8862391793523807 0.4625220657902432 0.02556277836902598
-0.9012526537800909 0.4324940873729864 0.02631574513006111
-0.9229396701545314 0.3840188085977351 0.0266818271154757
-0.9400862641819047 0.3398171068883526 0.02760706001260072
-0.9558906003944324 0.2923716511833253 0.0281420976813531
-0.9702331185798744 0.2405356309971371 0.02811237861832638
-0.9825070482075905 0.1841346601886144 0.02782673426096165
-0.9912928380204087 0.1287052704571287 0.0278111964144037
-0.9969245314790675 0.07330955188747891 0.02769816126204616
-0.9994737171880236 0.01758186841930917 0.02726108129256783
-0.9989175378450944 -0.03825675325205963 0.02646079016403309
-0.9952685755289284 -0.09379739423710273 0.02534780856299598
-0.9885774007579364 -0.1487966997021811 0.02396382416102883
-0.9788057685307449 -0.2035808216524354 0.0222287324482674
-0.9656470973140453 -0.259091471794872 0.01993220239022521
-0.9505367648527804 -0.3101221591894024 0.01743860782609903
-0.9340459631009052 -0.3568203255189081 0.01540759914725526
-0.916335889363737 -0.4001623189202199 0.01409455144233977
-0.8942985086931425 -0.4472824715882961 0.01298337240802555
-0.8790042476506053 -0.4766481323463193 0.01257340617964756
0 0 0
0 0 0
0 0 0
0 0 0
0 0 0
0 0 0
0 0 0
0 0 0
0 0 0
0 0 0
0 0 0
0 0 0
0 0 0
0 0 0
0 0 0
0 0 0
0 0 0
0 0 0
0 0 0
-0.8486159561354314 0.5283342196108315 0.02671912013072662
-0.8701054638196929 0.4921181263523409 0.02713358705695926
-0.8910027255403756 0.4531096955638056 0.02838568064529808
-0.9126161730778836 0.4077281644189756 0.02982389270719943
-0.9323794117052986 0.3601118761009737 0.03143356993912214
-0.9503336610282942 0.3094943380587504 0.03285098820636162
-0.966213655413112 0.2555024317482562 0.03390692354017527
-0.9795149687486916 0.1983685502018468 0.03464598516518926
-0.9895556021414702 0.1398009917164695 0.03514815764052839
-0.996144871443907 0.08032194959881545 0.03526725830918474
-0.9991859629191705 0.02029036469922211 0.0348670705058761
-0.9986300849701876 -0.03985928734915636 0.03389971392877477
-0.9944953253997608 -0.09965044315308733 0.03238575207427581
-0.9868674462464202 -0.1586518990504117 0.03036805009818993
-0.9758794216084182 -0.2165230208825652 0.02787715747895702
-0.9617455313735506 -0.2728036638991916 0.02497386326107992
-0.9451448937471116 -0.3259147103983943 0.02192558710026322
-0.9265689342706533 -0.3756397667234564 0.019099102086018
-0.9063054667545138 -0.4222934908053104 0.01669157135645414
-0.8843514282085517 -0.4665906945816277 0.01468588285832522
-0.863258724159219 -0.5045871265454673 0.01327429424057112
-0.8418567648321374 -0.5395585354564311 0.01240057750581561
0 0 0
0 0 0
0 0 0
0 0 0
0 0 0
0 0 0
0 0 0
0 0 0
0 0 0
0 0 0
0 0 0
0 0 0
0 0 0
0 0 0
0 0 0
0 0 0
-0.7735507157339527 0.6330819170138021 0.02875024413145113
-0.7944831217311616 0.6065798348845405 0.02928264325076102
-0.8263500953389641 0.5623994113396652 0.02919626787934566
-0.8527159008551313 0.5214845070362492 0.03048772457861232
-0.8772575440014599 0.4789086392159647 0.0326453178394516
-0.9009282031033826 0.4325369457583901 0.03521595386913129
-0.9230579484472528 0.3827856643307853 0.03793624903950837
-0.9432538787536012 0.3295906175381055 0.04052338889007198
-0.9610735131265364 0.2729627741034661 0.04276711727901139
-0.9759875705377024 0.2132229790071311 0.04454462233802357
-0.9874440249571395 0.1511974477609107 0.04575619484867589
-0.9950804753403466 0.08760455003759469 0.04626327278889342
-0.9986759227503567 0.02312475150815064 0.04595266245180107
-0.9981323875817539 -0.04155048007484405 0.04478051435497963
-0.993474703387111 -0.1057277364143751 0.04277451908068185
-0.9848480849770124 -0.1687393484866555 0.04001601915995399
-0.9725117172137456 -0.2299553466123053 0.03662647193472695
-0.9568475154025764 -0.288735608084878 0.03278080065787256
-0.9384038650577987 -0.3443433748927963 0.0287371921388144
-0.9176995763318937 -0.3965015173094463 0.02477971693883793
-0.8951805996313306 -0.4452032239974937 0.02111358297229817
-0.8712527389807072 -0.4905103549177023 0.01783974599383313
-0.8465985781499165 -0.5320202178545907 0.01501117145638074
-0.820338776842832 -0.5717419842894073 0.0124657373956253
-0.7888966040260774 -0.6144495383003157 0.009690873987955735
-0.7680789746204006 -0.6403010224097054 0.008324028301185593
0 0 0
0 0 0
0 0 0
0 0 0
0 0 0
0 0 0
0 0 0
0 0 0
0 0 0
0 0 0
0 0 0
0 0 0
0 0 0
-0.7253309541244396 0.6878232551440174 0.02818114036048851
-0.7511795479837979 0.6594520177249927 0.02919457157233804
-0.7773728069921072 0.6282864772074001 0.03078346159102976
-0.8062484580299764 0.5906708806722514 0.03273124883275516
-0.8341798184110123 0.5503456170917221 0.03554901269657917
-0.8611830549686871 0.5067861299306267 0.0391352059498399
-0.8872389381755666 0.4592831077328812 0.04319830478524546
-0.9118698857811466 0.4077291740829525 0.04743661040917115
-0.9345361451930777 0.3521160432815991 0.05154110390138123
-0.9546463951726161 0.2925753487216311 0.05522613062984377
-0.9715705119899269 0.2294743831198497 0.05824300578949205
-0.9846986296215602 0.1634744439064799 0.06037147514255324
-0.9935446846255988 0.09537672324202263 0.06141856654004267
-0.9977818730901873 0.0260691318578728 0.06125140077429754
-0.9972600424613137 -0.04351223445174329 0.05982552267280743
-0.9920124942357068 -0.1124290317583918 0.05719199330432369
-0.982250175083723 -0.1797878946374567 0.05348744235636519
-0.9683436984392021 -0.2447804439514777 0.04891846228168278
-0.9507976284820782 -0.3067082168043779 0.04374859332063055
-0.93021521161517 -0.3650125516638836 0.03828181301303338
-0.9072077824340053 -0.4194006917189614 0.03281919067908927
-0.8823500445194551 -0.4697832697108859 0.02760576817014644
-0.8561714443539808 -0.5161882526945621 0.02280670193062805
-0.8291467993257232 -0.5587243758301496 0.01851099730208407
-0.8013107146836099 -0.5980672075670033 0.01472255977229139
-0.7726441734640656 -0.634735388903517 0.01148770149034434
-0.7466628457343775 -0.6651367018118879 0.009368174990045539
-0.721288432064445 -0.6925833151537378 0.008446853891955335
0 0 0
0 0 0
0 0 0
0 0 0
0 0 0
0 0 0
0 0 0
0 0 0
0 0 0
0 0 0
0 0 0
-0.6703402124390373 0.7415245403566341 0.02802419733137875
-0.6981002024860774 0.7154113739551697 0.02902883574091396
-0.7257750105358109 0.6872282863529841 0.03111135673807323
-0.7541214243660149 0.6558491131075447 0.03410011947514534
-0.7835861569237412 0.6201257261152305 0.03790538863459163
-0.8131613213848046 0.5804771718934847 0.04260185810806436
-0.8424348597629032 0.5366480228085463 0.04808748976537166
-0.8710271409406405 0.4882454774961525 0.0541116757209282
-0.8983748101758172 0.435064397083057 0.06034625781537648
-0.9238031959739919 0.377062567781094 0.06641893620471125
-0.9465631110309273 0.31439241928589 0.07194222356180682
-0.9658707516638574 0.2474581644432415 0.07653853885903762
-0.9809745305107843 0.1769486656729561 0.0798632594232537
-0.9912432839390888 0.1037912054682868 0.08163417000919493
-0.9962349361645946 0.02908883011143379 0.08166879408852402
-0.9957418039039823 -0.04595756551987033 0.07991346650927798
-0.9898091333870312 -0.1201371205821487 0.07645228395439643
-0.9787252823832786 -0.192315545873579 0.07149512178546373
-0.9629862146945426 -0.2615087933107799 0.06535060312969818
-0.9432409895198557 -0.3269356105722949 0.05839128555977848
-0.9202254528997706 -0.3880498585514451 0.05101395018634131
-0.8946870681509124 -0.4445610380936798 0.04359510858564039
-0.8673333692178857 -0.496391075434596 0.03645170599622796
-0.8388022436599003 -0.5436188743502316 0.02982139301413947
-0.8096310186057379 -0.5864538192105823 0.0238648621357027
-0.7801877458257626 -0.6252661979148393 0.01868857962595298
-0.750879918315696 -0.6602814409327629 0.01441412605631523
-0.7227231534996787 -0.6910460892063659 0.0112492661123584
-0.6954041324887394 -0.7185596168250415 0.00922873695759294
-0.668310380564382 -0.7438371883359487 0.008214163278190346
0 0 0
0 0 0
0 0 0
0 0 0
0 0 0
0 0 0
0 0 0
0 0 0
0 0 0
-0.61439097994523 0.7885229038953627 0.02748370052165665
-0.6408576932735334 0.7671225436131337 0.02871271587016884
-0.6682700185646889 0.7432722972641321 0.03100765078572172
-0.6968211334657031 0.7164146652324558 0.03450123759288572
-0.726526507344059 0.6860203796551363 0.03918255765343242
-0.7573154377379074 0.6514963346164521 0.04500948505780693
-0.788731099515125 0.6125407974636158 0.05193288072405373
-0.820339187128121 0.568742065284465 0.05980034479778938
-0.8516320526379553 0.5196665199094193 0.06833414230745365
-0.8819435384219925 0.4649986272103514 0.07714837476047914
-0.9104595737340647 0.4046064434240758 0.08577290094024166
-0.9362531733489142 0.33860493746305 0.09368399927272147
-0.958341130759272 0.26742000493026 0.100343500328318
-0.9757691638778451 0.1918266092952874 0.1052477590801981
-0.9877174423561284 0.1129314528106273 0.1079849111290494
-0.9936006032624437 0.03210459149119876 0.108291903675624
-0.9931413952157068 -0.04913161788632307 0.1060954911052822
-0.9864026691918701 -0.1292382519433726 0.1015246198996802
-0.9737718261150712 -0.2067950263812752 0.0948907146589512
-0.9559029891136962 -0.2806111321721915 0.08664218317044463
-0.9336313279429428 -0.349795016811655 0.0773045257228208
-0.9078777604368932 -0.4137786708151257 0.06741797744339617
-0.8795609327865604 -0.4723011552980603 0.05748203388670545
-0.8495332482617755 -0.5253544939749114 0.04791571514816934
-0.8185414401375868 -0.5731193941344296 0.03903934994936769
-0.7872026677298606 -0.6159107959409255 0.03107814927575083
-0.7559997800766978 -0.6541249611050416 0.02418403984679914
-0.7253682083811026 -0.6881132056149221 0.01847101860602961
-0.6957996183878972 -0.7180988414196695 0.01403370952329935
-0.667456394018615 -0.7445691507113747 0.010896875359869
-0.6404367076036241 -0.767957755648614 0.009039308213182773
-0.6146715024700341 -0.788737690882084 0.008473431018681468
0 0 0
0 0 0
0 0 0
0 0 0
0 0 0
0 0 0
0 0 0
0 0 0
-0.5868524057919423 0.8091913109587937 0.02852500806305806
-0.6080778907332717 0.7932858555200488 0.03064033670178379
-0.6347628540076854 0.7719478778435581 0.03424314624628142
-0.663839673229491 0.7468383305842685 0.03936237056713794
-0.6946096507098021 0.7179136104729961 0.04601609542793919
-0.7268068420281467 0.6847019390679613 0.0541762772590119
-0.7601069878177176 0.6466627771672565 0.06375437002282187
-0.7940991621755128 0.6031981455171599 0.0745554684567637
-0.8282262139492529 0.5537169907509194 0.08624866770583543
-0.861734017832632 0.4977346863520541 0.09835987246865688
-0.8936657648833534 0.4349703236786123 0.1102829007343084
-0.9228934408193342 0.3654469582614623 0.1213104183081339
-0.9481881226648811 0.2895857320578027 0.1306881319240366
-0.9683313223431254 0.2082673640822852 0.1376922482474241
-0.9822563651585722 0.1228296590318406 0.1417226445124085
-0.9891915815027873 0.03498610835901748 0.1423937755167159
-0.9887709466304856 -0.05332901113365552 0.1395995403680074
-0.9810832300027236 -0.1401599984315029 0.1335322831644219
-0.966647489730182 -0.2237297648130395 0.1246500017450414
-0.9463242395175478 -0.3025972676982067 0.1136016165514998
-0.9211883098527185 -0.3757453270045854 0.1011313355242004
-0.8923951958168298 -0.4425940815744325 0.08798462046474959
-0.8610670963350264 -0.5029547311817457 0.07483310758657363
-0.8282138296070258 -0.5569466767148625 0.06222741955066122
-0.7946890359670848 -0.6049058358527205 0.05057930273369057
-0.7611752473726272 -0.6473011353334818 0.04016818371801809
-0.7281968547397851 -0.6846591300020756 0.03116434584400185
-0.6961720241242696 -0.7174850352191274 0.02365876292886133
-0.6654719562049998 -0.7462132901141619 0.01768618561725186
-0.6364466688757091 -0.7712071287049771 0.01323640100773118
-0.6098886924139565 -0.7924201770921473 0.01029785428346061
-0.5888975655660881 -0.8081583472410009 0.008929896697494687
0 0 0
0 0 0
0 0 0
0 0 0
0 0 0
0 0 0
0 0 0
-0.5070996479616316 0.8613544693739074 0.03030552964036222
-0.5410589592746026 0.8404201825580287 0.03080778047527825
-0.5683953711372114 0.8220653752423601 0.03369303930233612
-0.5964814711054325 0.8016948580112092 0.03866793589377994
-0.6262912588627224 0.7782528845576976 0.04562572464924505
-0.6579516421065822 0.751081229895886 0.05455843424562884
-0.6914107949659285 0.7194915983243779 0.06544427053007575
-0.7264742171034144 0.6827312284489028 0.07818747715991631
-0.7627871433721373 0.6399900349284042 0.09256634970935057
-0.7997858447103469 0.5904552069693716 0.1081908090537848
-0.8366492901655944 0.5334076031372865 0.1244760787490567
-0.8722794141196897 0.4683473474915326 0.1406392043516157
-0.9053251071216277 0.395139520484218 0.1557279993023573
-0.9342630180948998 0.3141589104476435 0.1686914105891517
-0.9575412867814947 0.2263950996296406 0.1784935376211801
-0.9737731228814002 0.1334715657919215 0.1842586396315176
-0.9819423821476964 0.03754576189142005 0.1854170270123527
-0.9815674203215362 -0.05890857272102293 0.1818108341746884
-0.9727744097737862 -0.1533932235163032 0.1737252620332992
-0.956258749916317 -0.2436779262458098 0.1618340862396538
-0.9331506312939235 -0.3280213481322699 0.1470778517834677
-0.9048291644421803 -0.4052785171721821 0.1305124771567163
-0.8727361175463392 -0.4748943623525542 0.113168077371239
-0.8382274404794217 -0.5368140782113625 0.09594479382124917
-0.8024789846877375 -0.5913530350110937 0.07955543424371028
-0.7664439060009474 -0.6390634869091097 0.06451045383176597
-0.7308498131785806 -0.6806202276583073 0.0511337098124801
-0.6962246619898502 -0.7167310772258225 0.03959523930764777
-0.6629417234245881 -0.7480717509824235 0.02994873494702844
-0.6312615435877154 -0.7752532894782499 0.02216304898716517
-0.6013438839247455 -0.7988272587236039 0.01614137498585355
-0.57321383905084 -0.8193219720818345 0.01172180807429113
-0.5461437090402441 -0.8376472695687484 0.008608185626786153
-0.5133759516473916 -0.8581411624104189 0.006235194225456676
0 0 0
0 0 0
0 0 0
0 0 0
0 0 0
-0.4405512933045925 0.8972353988902735 0.02971862960942258
-0.4698980142132243 0.8821864444145194 0.03070722276168398
-0.4983447273023902 0.8663519093873615 0.03296819483652299
-0.5256899153437508 0.849856068723343 0.03734669141951034
-0.5539278801163822 0.8313989235577744 0.04404240611892112
-0.5839411777673126 0.8100551452065965 0.05313532376906038
-0.6160719563887386 0.7850286043698992 0.06469493699200675
-0.6504267931931275 0.7554756035023068 0.07875023307476108
-0.6869347411398893 0.7204519619186195 0.0952346154645692
-0.7253235065649233 0.6789160477774684 0.1139245842414403
-0.7650605978013471 0.6297813116386666 0.1343792439423797
-0.8052881519909028 0.5720220525259674 0.1558902296074247
-0.8447797326736755 0.504832858871735 0.1774570028688174
-0.881947236553701 0.4278332241233929 0.1978074929608895
-0.9149258217330756 0.3412873930860878 0.215484700260965
-0.9417537583572554 0.24628195787913 0.229008855381634
-0.9606355986681939 0.1447857019492218 0.2370998673185439
-0.9702364186024567 0.03952985245443209 0.2389114538535327
-0.9699236414985266 -0.06629995011111552 0.2342059911221326
-0.9598757812633859 -0.1694928442479597 0.2234069387748304
-0.9410219070679408 -0.2672415461861063 0.2075083767231444
-0.9148396469045935 -0.3574509885842498 0.1878755205225537
-0.8830857609386297 -0.4388642046748434 0.1660052670325793
-0.8475399219020485 -0.5110156605329752 0.1433146031369987
-0.8098153190106445 -0.5740720399862623 0.1209976941999252
-0.7712529031988467 -0.6286310974516877 0.0999595049209258
-0.7328880496052609 -0.6755328036445515 0.08081174386144659
-0.6954671551273299 -0.7157102747549188 0.0639080491748623
-0.6594919085130931 -0.7500869021277801 0.04939698231782092
-0.6252729511590447 -0.7795153618148517 0.03727649720023671
-0.5929734568595738 -0.8047543361735938 0.02743971336957701
-0.5626204703867315 -0.8264804046520494 0.01970652247345724
-0.5340421527859422 -0.8453445695765632 0.01383971586307383
-0.5065710636735899 -0.8621452772930022 0.009553967237717688
-0.4784703812099964 -0.8780789199317508 0.006595807475183214
-0.4499707342400485 -0.8930285868753169 0.005126534009019031
0 0 0
0 0 0
0 0 0
0 0 0
-0.409738089687473 0.9117217565146578 0.02963336897969851
-0.4294774704588276 0.9025239104213224 0.03161792981982128
-0.4537129404706908 0.8904434773066348 0.03542571624551045
-0.4794937152751811 0.8765632322617942 0.0415051425531676
-0.5069199703229497 0.8605312567616662 0.05018067181660788
-0.5364518068881378 0.8416732369491557 0.0616897162417032
-0.5684447854920699 0.8191829382566642 0.07622230327175959
-0.6031136686546839 0.792108716851864 0.09390252056883823
-0.6405126024407257 0.7593283167624646 0.1147349705943691
-0.6804815926549812 0.7195512838075602 0.1385306898439168
-0.7225634726853177 0.6713686704829039 0.1648215284328821
-0.7659084993115428 0.6133690006285177 0.1927761389547814
-0.8091943436366095 0.5443358321722555 0.2211402632716492
-0.8506009574788568 0.4635266661820068 0.2482358573499121
-0.8878870371713944 0.3709993941413389 0.2720589251793843
-0.9186050072674073 0.2679039357792674 0.2905035659285858
-0.9404513430536376 0.1566173881310174 0.3016989643396659
-0.9516831237960147 0.04060892371246553 0.3043848668984283
-0.9514726867000247 -0.07599605480645921 0.2982018211173257
-0.9400683875654435 -0.1890507254728558 0.2837802845482632
-0.9187009498110826 -0.2950175616043245 0.2625894193627235
-0.8892828839395344 -0.3913973271782714 0.2366095615352201
-0.8540232662863385 -0.4768642543601108 0.2079537053172863
-0.8150823378754538 -0.5511436785313513 0.1785537120824265
-0.774338744256122 -0.6147426902009391 0.1499697769164291
-0.7332808865327787 -0.6686482922926459 0.1233231635169576
-0.6929951666214726 -0.7140683487508276 0.09931813707245596
-0.6542119896279037 -0.7522458821135047 0.07831223065635462
-0.6173762503558418 -0.7843457074391996 0.06040179399870415
-0.5827187591860337 -0.8113990197116597 0.04550251095979413
-0.5503131986181882 -0.8342894128631844 0.03341495190810205
-0.5201082553121181 -0.8537666317834859 0.02387344150443249
-0.4919330216277501 -0.8704751034097611 0.01658302071266814
-0.4655215609249638 -0.8849649057958126 0.01126018755586128
-0.4409460803044882 -0.8975004670911437 0.007711409422788043
-0.4211903992984719 -0.9069526675330658 0.005958724146106068
0 0 0
0 0 0
0 0 0
-0.330045862032275 0.9435261445940476 0.02877748117650757
-0.3600523021053227 0.9324488468345323 0.0300247861875452
-0.3823835308286201 0.9234127192983493 0.03304217288655645
-0.405071606536923 0.9134834829063057 0.03827427380056788
-0.4291642552973104 0.902049516489236 0.04609459595917708
-0.4551449026397824 0.8885981141070691 0.05689032612301077
-0.4834750427983899 0.8724719712887574 0.07102494144034133
-0.5145668090824497 0.8528371396425188 0.08882461504038236
-0.5487463695456183 0.8286478192990445 0.1105450744331985
-0.5862078452268923 0.7986115752721941 0.1363081583607812
-0.6269378289210875 0.7611769148598256 0.1660080207465601
-0.6706064060412793 0.7145697138614098 0.1991912955136879
-0.716434195523619 0.6569114876676392 0.2349241172266346
-0.7630626408277901 0.5864533785007864 0.271675985353752
-0.8084775112786778 0.50194350744945 0.3072732156989585
-0.8500563880059373 0.4030976442874921 0.3389932541809254
-0.8848087632711193 0.291063235057831 0.3638621244871487
-0.9098270899788025 0.1686853006155004 0.3791568747853079
-0.9228641975878082 0.04037169690794292 0.3830036538982142
-0.9228459780172008 -0.08852063754566136 0.3748591703373217
-0.910107120112652 -0.2126254638819298 0.3556619772048289
-0.8862497071848163 -0.3274951175190343 0.3275796155379951
-0.8537043804675196 -0.430189977192555 0.2934713176677348
-0.8151915143185949 -0.5193997593873668 0.2562941375281547
-0.7732697359205423 -0.5951873271746679 0.218645743338508
-0.7300639576558645 -0.6585529670623521 0.1825228952905021
-0.6871692756625102 -0.7109966509243381 0.149272063561255
-0.6456763001261374 -0.7541770322828306 0.1196625230909159
-0.6062575217766062 -0.7896919807450377 0.09401272699090267
-0.5692696375431315 -0.8189636676646403 0.07232282362291469
-0.5348462144458607 -0.8431971185359213 0.05438884247390482
-0.5029686565975092 -0.8633836029462935 0.03989090928987411
-0.4735130247850252 -0.880326987697678 0.02845716236850441
-0.4462780771184168 -0.8946772487999781 0.01971036182290095
-0.4210135134641078 -0.9069567819553382 0.01330477905957279
-0.3974507889869017 -0.9175798414521408 0.008950133761741395
-0.3748109485918897 -0.9270793625168536 0.006372472910223079
-0.34568891294729 -0.9383347120005587 0.005209963545805925
0 0 0
0 0 0
-0.2988404693168907 0.953878546620796 0.02846211859749561
-0.3145097437744833 0.9487594668330324 0.03064465965887401
-0.3329058396926567 0.9423174540842422 0.03480686177635751
-0.3529313073164733 0.9347321688032857 0.0414157569071246
-0.3746823117373432 0.9257519673779938 0.05095547239437065
-0.3984915666694558 0.9149422590925322 0.06391505159174583
-0.4247960206461199 0.9016772282895482 0.08078686048670659
-0.4540589366789435 0.8851081883092756 0.102048895191757
-0.4867136929803845 0.864114789088507 0.1281226457107416
-0.5231023984807589 0.8372505162107482 0.1592967476394676
-0.5633861018606094 0.8027036956874152 0.1956089904888618
-0.6074138409716899 0.7583069343550476 0.2366833731064925
-0.6545516159520022 0.7016427174138364 0.2815309559440123
-0.7034942827324668 0.6303040194750927 0.3283483473329401
-0.7521180357015398 0.5423577778005793 0.3743881691929835
-0.7974707157324759 0.4370001166340937 0.4160184558537281
-0.8360135997680895 0.3152679738248376 0.4490961652955652
-0.8641740740232252 0.1805189907590301 0.4696978430453368
-0.8791188033311954 0.03833075706037172 0.4750588202451411
-0.8794751752450579 -0.1043529572641518 0.4643639482538452
-0.8656705599501811 -0.2406062124600991 0.4390024284228333
-0.8397276406120845 -0.3648765284689958 0.4021474960315873
-0.8046440821811178 -0.4737796069706608 0.357883759102913
-0.7636648369346238 -0.5661593413575133 0.3102895696333353
-0.7197166698336946 -0.6426114584747336 0.2627897041371133
-0.6751117350756801 -0.7048093008445887 0.2178715093950238
-0.6314850129931858 -0.7548948438738649 0.1770888281559525
-0.5898730155034698 -0.7950509359392225 0.1412226428127193
-0.550847988440807 -0.8272596079276462 0.1104899756634644
-0.5146536474364878 -0.8532005265874516 0.08473774018236396
-0.4813171121872689 -0.8742364253311841 0.06359646326534463
-0.450730984053249 -0.8914431332442165 0.04659098846475604
-0.4227095740886734 -0.9056562908279326 0.03321594282212358
-0.3970314723369622 -0.917517100231147 0.02298653426183556
-0.3734888278548204 -0.9275055982695312 0.01547451602831962
-0.3519678294293223 -0.9359550492824876 0.01033405871025114
-0.3325870263212784 -0.9430442013363968 0.007314659839413128
-0.3166086812888398 -0.9485358556904298 0.006218794269399083
0 0 0
0 0 0
-0.2549561579786253 0.9665089856930772 0.02928716584644002
-0.2655986471646161 0.9635565299675962 0.0318774556878332
-0.2803649600079736 0.9591847952105291 0.03687841966058007
-0.2973207746344509 0.9537308404260562 0.04469721457739981
-0.3161374636629943 0.9470678475913815 0.05585334481797808
-0.3370244456756415 0.9388209050205546 0.07092130366407928
-0.3603989692464126 0.9283956849729431 0.09052090968247291
-0.3867643004215949 0.9149428367528921 0.1152951924147938
-0.4166442449016167 0.8972914071312822 0.1458619343033828
-0.4505191187941066 0.8738671651565839 0.182725754238905
-0.4887326437277916 0.842616893226117 0.2261353006604879
-0.5313496022741219 0.800975805787756 0.2758719969583479
-0.5779552043954289 0.7459406261814286 0.3309688262122215
-0.6274103808691291 0.6743373149805516 0.3893910625611148
-0.6776209669666182 0.5833769086176728 0.4477736120171799
-0.7254411863791135 0.4715295404521194 0.5013930370336993
-0.7668785699963495 0.3395699004215649 0.5446003503561506
-0.7977243440351077 0.1913827038040794 0.5718465979774613
-0.8145345907383899 0.03395520040523407 0.5791204061817226
-0.8156005802967314 -0.1237866693100187 0.5652190318104712
-0.8014207774144613 -0.2729863272368007 0.5321683969103788
-0.7744240060475452 -0.4068053806122965 0.4845377603057943
-0.7381375071712579 -0.5214634383293332 0.428052453553008
-0.6962542043407302 -0.6161565552536434 0.3682135010504367
-0.651964764077835 -0.6922449360762194 0.3094170242209745
-0.60766205480378 -0.7522605258273876 0.2546584544709828
-0.5649338581133493 -0.7990995545972749 0.2056444450978488
-0.5247043434346815 -0.8355164638310373 0.1630876777934433
-0.4874156431394649 -0.8638810099123101 0.1270259482776188
-0.4531908498391791 -0.8861104284497443 0.09708945470365206
-0.4219584606320501 -0.9036959416994674 0.07269595901384573
-0.3935387020221426 -0.9177685141397272 0.05318124165985463
-0.3677024093284419 -0.9291716605154432 0.0378809116710764
-0.3442185166222025 -0.9385244862423007 0.02618017452263178
-0.3229158982061222 -0.9462650224813078 0.01754508233615987
-0.3038095200211772 -0.952662824370167 0.01154636772138106
-0.2874364375276786 -0.9577672819749337 0.007882129137731593
-0.2759166282407527 -0.9611605634188811 0.006354965660987014
0 0 0
0 0 0
-0.2030749425366264 0.978679992473573 0.03075776399012591
-0.2122806799952653 0.9766365112570927 0.03343707194599763
-0.2244794041430139 0.9736970121531747 0.03902724227481585
-0.2383472037882106 0.9699994067635473 0.0478723440485902
-0.2537670367975947 0.965372381372871 0.0604851743606621
-0.2710138549725057 0.9594498386976855 0.07750804755589091
-0.290529664174495 0.9516592837146648 0.09968511400578033
-0.312847996011937 0.9411615362740053 0.1278322886819623
-0.3385522359169778 0.9267596130843312 0.1627851440131895
-0.3682265652211066 0.9067853163083562 0.2053036453476163
-0.4023740497841514 0.8789800028025058 0.2559087312570782
-0.4412790397607505 0.8404076024727601 0.31462337925497
-0.4847961788656541 0.7874744566460604 0.3806003745232684
-0.532067071382112 0.7161778095887875 0.4516569235641898
-0.5812130885481743 0.6227352707395256 0.5238245205001968
-0.6291346075234281 0.5046945864692843 0.5911624311514895
-0.6716324878799133 0.3623922750205451 0.6462055711843336
-0.7040562587764643 0.2002116482666438 0.6813369800444133
-0.7224524411227331 0.0267528887986218 0.6909028537042902
-0.7247799378984318 -0.1467060389529421 0.6731800500272438
-0.7115312958401233 -0.3090440194964199 0.6310427949462467
-0.6853979311906671 -0.4520182244514115 0.5708845773738733
-0.6502420255351266 -0.5715690481614745 0.5004938874869116
-0.6099892377004502 -0.6674827465447555 0.4270596128817295
-0.5678974700570036 -0.7421130933011736 0.3560345773289687
-0.5262920331027199 -0.7990011287383655 0.2908846715924078
-0.4866231996496987 -0.8418624095839915 0.233378544198314
-0.4496638815830013 -0.8740267133242293 0.1840643854615917
-0.4157239718068965 -0.8982227252066567 0.1427218104825788
-0.3848262119105137 -0.9165650038026545 0.1087077753927628
-0.35683115054599 -0.9306339993089041 0.08119045098001978
-0.3315190096179834 -0.9415834624615991 0.05929358718054819
-0.3086420500845383 -0.9502426146334352 0.04217888398506386
-0.2879634055998934 -0.9571995180220229 0.0290888248940657
-0.2693016333303627 -0.9628611448650314 0.01936610427523443
-0.2526185398347183 -0.9674857194289868 0.01246017787794303
-0.2382635459148735 -0.9711681406908984 0.007932540264842658
-0.2278128096782642 -0.9736893603577067 0.005509380427444048
0 0 0
-0.1093960765055424 0.9935163815471172 0.03094669679813842
-0.1401397346726435 0.9896275555284857 0.03159360860354878
-0.1545047216492199 0.9873833638732371 0.03467540532520438
-0.1655804114444462 0.9853486279211459 0.04088042073905884
-0.1764324501325565 0.9830094622680776 0.05063583347440116
-0.1880500029349206 0.9800384185060173 0.06451274795263527
-0.2009904283246317 0.9760501636490981 0.08324016916398744
-0.2157567520879118 0.9704906748568899 0.1076887828155417