# OOMMF: rectangular mesh v1.0
# Segment count: 1
# Begin: Segment
# Begin: Header
# Title: 
# Desc: time = 1.4799999999999999e-09
# Desc: stepsize = 2.994451597848224e-14
# Desc: step = 9470
# meshunit: m
# valueunit: (none)
# valuemultiplier: 384000.0000000001
# xmin: 0
# ymin: 0
# zmin: 0
# xmax: 9.357999999999999e-08
# ymax: 9.357999999999999e-08
# zmax: 2.3395e-08
# ValueRangeMaxMag: 1
# ValueRangeMinMag: 0
# meshtype: rectangular
# xbase: 1.16975e-09
# ybase: 1.16975e-09
# zbase: 1.16975e-09
# xstepsize: 2.3395e-09
# ystepsize: 2.3395e-09
# zstepsize: 2.3395e-09
# xnodes: 40
# ynodes: 40
# znodes: 10
# End: Header
# Begin: Data Text
0 0 0
0 0 0
0 0 0
0 0 0
0 0 0
0 0 0
0 0 0
0 0 0
0 0 0
0 0 0
0 0 0
0 0 0
0 0 0
0 0 0
0 0 0
0 0 0
-0.9876617351989616 0.1547125882312965 0.0242551410333774
-0.9921518995841776 0.1225124403137894 0.02500620162814458
-0.9965558883521237 0.07896710635955752 0.02530923752125286
-0.9992008411583391 0.03103936398979474 0.02518406066495113
-0.9995282408317051 -0.01809037123353836 0.0248200372382691
-0.9975150062424109 -0.06606698958229427 0.02447376572445095
-0.9936666449793803 -0.1096746151309305 0.02445562207967405
-0.9895666947344127 -0.1418863764019786 0.0250202490779915
0 0 0
0 0 0
0 0 0
0 0 0
0 0 0
0 0 0
0 0 0
0 0 0
0 0 0
0 0 0
0 0 0
0 0 0
0 0 0
0 0 0
0 0 0
0 0 0
0 0 0
0 0 0
0 0 0
0 0 0
0 0 0
0 0 0
0 0 0
0 0 0
0 0 0
0 0 0
0 0 0
0 0 0
-0.9278209811800618 0.3720073708715993 0.02754528815000875
-0.939391851315949 0.3416492812464843 0.02861325400847922
-0.9538134665713417 0.2990064070364284 0.02889705068557973
-0.968247889174128 0.2483943583976169 0.02821821798202933
-0.9820869523484221 0.1864804102081457 0.02702359405388177
-0.9903903021380519 0.1355999508317333 0.02719747718684703
-0.9960076409823262 0.08495785278772343 0.0274033274351956
-0.9990746820036065 0.03321759988750572 0.02731978837958917
-0.9994553210375265 -0.01901704918591494 0.02697059676822979
-0.9971366792779899 -0.07082878653929885 0.02649010826388926
-0.9922407605775611 -0.1215811611199254 0.02600565917628857
-0.9846748145873878 -0.1725404403127848 0.02540287334068532
-0.9718626772955369 -0.2343517910137231 0.02371021991907327
-0.9582241089904693 -0.2852088763661275 0.02150473881244605
-0.9443930601774259 -0.3282050998227134 0.02007885303195097
-0.9331958672078885 -0.3588125682392154 0.01997534229229502
0 0 0
0 0 0
0 0 0
0 0 0
0 0 0
0 0 0
0 0 0
0 0 0
0 0 0
0 0 0
0 0 0
0 0 0
0 0 0
0 0 0
0 0 0
0 0 0
0 0 0
0 0 0
0 0 0
0 0 0
0 0 0
0 0 0
-0.8769070393151631 0.4799123899157191 0.02679817913398289
-0.8925022543410376 0.4501871670650639 0.02777121902433121
-0.9150857268520626 0.4022477039766579 0.02854640357625404
-0.9330692439906797 0.3584592135239624 0.02981238263613107
-0.9498020362878514 0.3113388632956277 0.03072790369089269
-0.9651734531689882 0.2597519620551826 0.03113074856686501
-0.9785722934571196 0.2035079879094164 0.03131717316638086
-0.9884664031593177 0.1480754786223933 0.03174621955492439
-0.9951968589394194 0.09249466413201905 0.03206164475221929
-0.9988233456716922 0.03640766238542498 0.0320375757640258
-0.999300626091847 -0.01994966597399511 0.03162703779944812
-0.9966181349875408 -0.07615267486967477 0.03087172045981074
-0.9908084440910705 -0.1319473473537338 0.0298081305040154
-0.9818242673993063 -0.187661807846941 0.0283576060596214
-0.9693589105964565 -0.2442348978950079 0.02631761952505099
-0.954794450944331 -0.2962935648794358 0.02403497154041201
-0.9387266762697134 -0.3439486169961334 0.02217151609753239
-0.921334637804225 -0.3882031813255601 0.02099464671937249
-0.8995485734288351 -0.4363617689897084 0.02001925588825186
-0.8843989301820422 -0.4663153920384552 0.01971008475072166
0 0 0
0 0 0
0 0 0
0 0 0
0 0 0
0 0 0
0 0 0
0 0 0
0 0 0
0 0 0
0 0 0
0 0 0
0 0 0
0 0 0
0 0 0
0 0 0
0 0 0
0 0 0
0 0 0
-0.8381046130525547 0.5448279075317574 0.02726185530358996
-0.8601783707507181 0.5092248326186564 0.02798643130413088
-0.881709716621947 0.4708666865829875 0.0295387724999502
-0.9040968870344098 0.426176261253785 0.03134666167927069
-0.9247178614423995 0.3791890850742292 0.03335437737334523
-0.9436378829467412 0.3291009057889547 0.0352156169430742
-0.9605919366088425 0.2755205962059096 0.03676319339247983
-0.9750615022465905 0.2186525683903351 0.03802789992796594
-0.9863182328876273 0.1601582434849666 0.03905996053809545
-0.9941415472579361 0.100531399982828 0.03969913894644105
-0.9984017902279856 0.04012656514898629 0.03979603044144948
-0.9990153220175065 -0.02061078542480425 0.03928844484615851
-0.9959673932957253 -0.08118447123972904 0.03818419989004692
-0.9893160523054765 -0.1411389260387795 0.03651783409961395
-0.9791735577185877 -0.2001036183178872 0.03431742707156241
-0.965740999120027 -0.2575710654964252 0.03164599244276945
-0.9496866651231104 -0.3118772612794299 0.02877172195379657
-0.9315162906585954 -0.3627640795054784 0.02606957725383388
-0.9115335237019146 -0.4105393019614753 0.0237511412895171
-0.8897546028995137 -0.4559174403378594 0.02181820833392137
-0.8687486067111326 -0.4948301368207045 0.02046934369899786
-0.8473699669286867 -0.5306387897287465 0.01966250193863922
0 0 0
0 0 0
0 0 0
0 0 0
0 0 0
0 0 0
0 0 0
0 0 0
0 0 0
0 0 0
0 0 0
0 0 0
0 0 0
0 0 0
0 0 0
0 0 0
-0.7613650015357503 0.6477093819115033 0.02821154055142183
-0.7826796567099849 0.6217512452720396 0.02894726196046641
-0.8151503503938836 0.5785093930547713 0.02927094805653825
-0.842045931588586 0.538520193101396 0.03089742250001843
-0.8671803262643363 0.4968729216576711 0.0334003213075641
-0.8915690984424132 0.4514218110305588 0.03637157170748073
-0.9145522217919151 0.4025293843758737 0.03955159073224384
-0.9357465573273877 0.3500833212708642 0.0426620278221981
-0.9547059845029944 0.2940532158865578 0.04548834335234858
-0.9708833732912386 0.2347164221184437 0.04789234442519135
-0.9836904514035189 0.1728527441333696 0.04974961972824086
-0.9927216710622521 0.1091475902429982 0.05089683042700863
-0.9977069404141008 0.04427019169111918 0.05119581210572621
-0.9984976181037192 -0.02107821755829159 0.0505788037201761
-0.9950714631650354 -0.08617733847427166 0.04905353736567578
-0.9875345005127811 -0.1503191131402025 0.04668805545012632
-0.9761178985822276 -0.2128215203406935 0.04359872185386767
-0.9611890308902046 -0.2729809398697696 0.03996315007811459
-0.9432956286427063 -0.3299907451256349 0.03604809447098477
-0.9229710112834032 -0.3835240940525976 0.0321524744246155
-0.9006811586352735 -0.4335448532333464 0.02850106514319751
-0.8768552379612197 -0.4800927173967298 0.02521654937923701
-0.8522008496621639 -0.5227362990313447 0.022371265277089
-0.8258577496543812 -0.5635299740650871 0.01982285716042592
-0.7942520729301504 -0.6073483189034673 0.01707817821930807
-0.7733376870291052 -0.6337989218842168 0.01574002664792916
0 0 0
0 0 0
0 0 0
0 0 0
0 0 0
0 0 0
0 0 0
0 0 0
0 0 0
0 0 0
0 0 0
0 0 0
0 0 0
-0.7124714211000567 0.7011801467048102 0.02703471809887675
-0.7385892247051539 0.6735621220918072 0.02828471022691116
-0.7650541585304392 0.6432622860890814 0.03009594342647332
-0.7942818825750905 0.6066882113141183 0.03233736639624833
-0.8226140452341375 0.5674922812007894 0.03547736406571905
-0.8501232128487904 0.5251050248024756 0.03943647934134828
-0.8768378192310168 0.4787734825133792 0.04394759615957319
-0.9023063261125152 0.4283335709645095 0.04872007637644173
-0.9260019684936096 0.373716027197501 0.0534479687329258
-0.9473307966187539 0.3149905937836465 0.05783846129957378
-0.9656423947630384 0.2524623412235475 0.06162411622269803
-0.9802870795625972 0.1867346886650093 0.0645553846849015
-0.9907232059251381 0.1185667392837978 0.0664037467092328
-0.9965575627275924 0.04882921957086893 0.06699799613824026
-0.9975702683484196 -0.02153090637861997 0.06625692248947607
-0.9937298243939306 -0.09153824997618336 0.06420112850491641
-0.9851945104675179 -0.1602411395749575 0.06094713883674836
-0.9722996364268336 -0.2267580578576608 0.05669391678891191
-0.9555344324319397 -0.2903102618561736 0.0517097698502893
-0.9355061051979005 -0.3502618467076331 0.04631377633504429
-0.9128454451646983 -0.406258671553683 0.04082995260222286
-0.8881550668194256 -0.458168236428958 0.03553089374838692
-0.8619964596012275 -0.5059892185734678 0.03061068967469359
-0.8348777080333019 -0.5498122691248905 0.02618551792115449
-0.8068644508546412 -0.5903162019522116 0.02228316987668347
-0.7779702362629686 -0.6280147845147883 0.01896686373083317
-0.7517668212459133 -0.6592150555589629 0.01679752952693429
-0.7261591414660979 -0.6873436850800714 0.01586063825217249
0 0 0
0 0 0
0 0 0
0 0 0
0 0 0
0 0 0
0 0 0
0 0 0
0 0 0
0 0 0
0 0 0
-0.6569460760601864 0.7534805423992834 0.02624738796156171
-0.684861039583077 0.7281556061814245 0.02747307131990876
-0.7126260534780418 0.7009134919375944 0.02973860662771678
-0.7410737840341285 0.6706159428072195 0.03292269536537919
-0.7707002929666571 0.6361240481456297 0.03697639506394645
-0.8005270751010104 0.5978241373719131 0.04198455437120319
-0.8301917588332626 0.5554192416153851 0.04786553675374065
-0.8593638592173289 0.5084637911831436 0.05439053710676577
-0.8875171592267752 0.45668609458975 0.06124624957004238
-0.9139988686840537 0.3999664730190687 0.06806532527620737
-0.9380622205968883 0.3383727872202382 0.07445218034175734
-0.9589023407521223 0.2722230015244483 0.08000586441705354
-0.9757206216552594 0.2021273580978035 0.08434334345445126
-0.9878150270462321 0.1289552205973807 0.08713221805011019
-0.9946555692505471 0.05378417515741966 0.08813376799788709
-0.9959406029491603 -0.02217170865634931 0.08723950213361109
-0.9916279950830599 -0.09765079243093298 0.0844881181300733
-0.9819365953092031 -0.1714378549528948 0.08005988184927514
-0.9673183065348621 -0.242449566432841 0.07425295670243208
-0.9484061621324985 -0.3098007357916734 0.06744817070937993
-0.9259454522260732 -0.3728499685264751 0.06006596766605023
-0.9007120880505455 -0.4312304643654739 0.05251686436529964
-0.873452996072771 -0.4848099843410626 0.04515686807914743
-0.844850004120534 -0.5336332218020362 0.03826297331248302
-0.8154845108522358 -0.5778918344387868 0.03203186302828774
-0.7857658621478757 -0.6179518176526573 0.02660001772145432
-0.7561400135173334 -0.6540362339639492 0.02211073540749291
-0.7276580445934017 -0.6856828297297398 0.01878369378803676
-0.7000144162180255 -0.7139343287980541 0.01666106991186821
-0.6726024209709869 -0.7398394351096335 0.01560748412221012
0 0 0
0 0 0
0 0 0
0 0 0
0 0 0
0 0 0
0 0 0
0 0 0
0 0 0
-0.6006529190225109 0.7991148167673742 0.02513126524037658
-0.6271873321214146 0.778416173498705 0.0265388632396978
-0.6545493224805192 0.7554642255090006 0.02896529675971848
-0.6829990782058447 0.7296921349495107 0.03258293054331424
-0.71261050639242 0.7005614588876183 0.03741535113278587
-0.7433654066149439 0.6674726327701808 0.04345292569024344
-0.7748569124295107 0.6301023951352969 0.05067284188761297
-0.8067082218853401 0.5880022126438827 0.05895118886409663
-0.8384704262787999 0.5406830085037757 0.06803843451427195
-0.8695285270272753 0.4877529203723092 0.07757080220069996
-0.899104245219433 0.4289838335491284 0.08708861453649872
-0.9262829184526986 0.3643791601389164 0.09606134831038092
-0.9500625575480361 0.2942469197499427 0.1039225046029701
-0.9694341275827303 0.2192525019997661 0.1101172676956363
-0.9834881979441251 0.1404198713640965 0.1141631474281745
-0.991523816105954 0.05908052807561043 0.1157152250008284
-0.9931379146856347 -0.02322731703344807 0.1146192573579849
-0.9882762742309005 -0.1048951208218194 0.1109370065400423
-0.9772350107239575 -0.1843908004261489 0.1049369645718326
-0.9606135294056716 -0.2603885656468793 0.09705380983320026
-0.9392312969637622 -0.331859778441038 0.08782743453405394
-0.9140273921794526 -0.3981152049199972 0.0778345036416186
-0.885962535521104 -0.4587998453950669 0.06762460734435691
-0.8559440862995186 -0.5138420564088942 0.05767202263108445
-0.8247774858115813 -0.5633864653320561 0.04835069367628671
-0.7931361065366741 -0.6077338812756258 0.03993301963924767
-0.7615528060118411 -0.6472819906700363 0.03260902037359525
-0.7305052444949994 -0.6823919325244691 0.02652052395449332
-0.7005181292873045 -0.7133021542130589 0.02178043467941541
-0.6717730425893202 -0.7405278528071015 0.01842494144333608
-0.6443815146283133 -0.7645274628400008 0.01643843571485016
-0.6182816885469774 -0.7857971644524613 0.0158294013143142
0 0 0
0 0 0
0 0 0
0 0 0
0 0 0
0 0 0
0 0 0
0 0 0
-0.5730298294582553 0.8191274237633335 0.02582785685817144
-0.5940917138069002 0.8039102094753018 0.02798947458163287
-0.62051113180617 0.7835591966772137 0.03163732933078651
-0.6492722403292829 0.759664767511802 0.0368103102273396
-0.6797291804659445 0.7321689191782228 0.04355358782566244
-0.7116713301407358 0.7005948455650907 0.05187273101873108
-0.7448352185005495 0.6643881780665569 0.06171584988185188
-0.7788789581950791 0.6229197819625375 0.0729281408010109
-0.81331905738599 0.5755430351947874 0.08521927910710959
-0.8474716548136196 0.5216879694178698 0.09815017499793051
-0.8804360338132244 0.4609568268887007 0.1111359262702145
-0.9111131839197414 0.3932283007342087 0.1234676864176099
-0.9382629614918405 0.3187637850179181 0.1343587155848497
-0.9606059063687813 0.238290125086932 0.1430178622951189
-0.9769636879163954 0.1530249108557438 0.1487458542292423
-0.986413425472414 0.06462215434055046 0.1510381780086205
-0.9884209222198108 -0.02496560957122126 0.1496689642406715
-0.9829181823263905 -0.1136868539145551 0.1447312892887865
-0.9703044984386183 -0.1996091857379489 0.1366212036208651
-0.9513729159813004 -0.2811067014508217 0.1259706201329318
-0.9271850875748597 -0.3569796949419429 0.1135487154394817
-0.8989283025982865 -0.4264931735623331 0.1001572747856712
-0.8677861730688469 -0.4893441593870117 0.08654161718123508
-0.8348436894887401 -0.5455810315232167 0.07333043135622529
-0.8010308562376233 -0.5955061543790845 0.06100809333074935
-0.767099636825388 -0.6395831436459642 0.04991542393191654
-0.7336327813901419 -0.6783518586767147 0.04027031039873107
-0.7010944545480272 -0.7123411257414942 0.03219761449772757
-0.6698898577227831 -0.7420136856141641 0.02575400709469127
-0.6403929725734906 -0.76776185597844 0.02094213893155985
-0.6134204944327708 -0.7895568253582798 0.01775715461467423
-0.5921248674707004 -0.8056821163320523 0.01626249505795336
0 0 0
0 0 0
0 0 0
0 0 0
0 0 0
0 0 0
0 0 0
-0.4934170061342075 0.8693779644461248 0.02686285526646985
-0.5271404556443259 0.849331400931722 0.02755197659788136
-0.5540857673996017 0.8319020861143113 0.03046114711974437
-0.5816832523841104 0.81264425832656 0.0354104970978645
-0.610947695429835 0.7905379828447282 0.04233923864172618
-0.6420530381429578 0.7649435168831437 0.05127681922511201
-0.6750040930222575 0.7351838451146622 0.06224297780166973
-0.7096749482209158 0.7005054421540792 0.07519038090179858
-0.7457927576737643 0.6600770244877924 0.08995267836314473
-0.7828863677925456 0.6130340517422581 0.1061988066273097
-0.8202300928104859 0.5585653178164506 0.1233992730153168
-0.8568104922208472 0.4960322040477249 0.1408113382076355
-0.8913317428593531 0.4251158869948091 0.1574935135042838
-0.9222754180836523 0.3459762519685421 0.1723614988111423
-0.9480268092973654 0.2593864993570659 0.184292736711849
-0.9670629578359243 0.1667940125707763 0.1922732247406593
-0.9781713699980685 0.070263589765034 0.1955602180133578
-0.9806459814458017 -0.02771161592358059 0.1938182793678233
-0.9744029791028596 -0.1245007961527797 0.18718543231992
-0.9599806748206551 -0.2176563849511401 0.1762464242499119
-0.9384268842361986 -0.3051822171119565 0.1619221952092122
-0.9111136506637114 -0.3856894442078403 0.1453119685397278
-0.8795348715012542 -0.4584252639204123 0.1275330828168595
-0.8451341326394261 -0.5231992354382101 0.1095940595318769
-0.8091878162352298 -0.5802521718354546 0.09231736097125774
-0.77274583456023 -0.6301114999189372 0.07631102698640818
-0.7366191774071571 -0.6734619278155534 0.06197757061196388
-0.7014019327800393 -0.7110419142832785 0.04954517963228672
-0.6675161440484698 -0.7435676561487254 0.03910675343406164
-0.6352554719428395 -0.7716934436014355 0.03065476258654864
-0.6047992929831032 -0.7960130705525685 0.02410408091194453
-0.5761795194832678 -0.8170953677578701 0.01929562947044978
-0.5486498563424932 -0.8359004908004706 0.01592810769971485
-0.5153263478198323 -0.8568890321416645 0.01341424011988777
0 0 0
0 0 0
0 0 0
0 0 0
0 0 0
-0.4271546545417831 0.9038110212693288 0.02577865270688532
-0.4562722952796572 0.8894338757684667 0.02688816088386655
-0.4842992138343058 0.8744159256920107 0.02917293909869991
-0.5110660916129854 0.8588891191446603 0.03348030791878377
-0.5386050971005065 0.8416058696685891 0.0400513360168103
-0.5678384472178006 0.8216800086879535 0.04900470573160113
-0.5991536805736831 0.7983486517730096 0.06045078384294048
-0.6327148437999985 0.7707959795761502 0.07446800859688414
-0.6685255032379775 0.7380943807261966 0.09105128588230177
-0.7064080147242175 0.6991969564723003 0.1100515006406595
-0.7459438883321491 0.652975793234273 0.1311118946167174
-0.7864015271986029 0.5983116106163372 0.15360942230667
-0.8266773968176717 0.534239441773895 0.1766145533184461
-0.865277867163993 0.4601488835531299 0.1988899634494879
-0.9003724025651286 0.3760179242012085 0.2189521805749176
-0.9299434285069427 0.2826296074896211 0.2352142103424342
-0.9520348463786311 0.1816939862891361 0.246205090579336
-0.9650598645062278 0.07579734359447235 0.2508270731465039
-0.9680877842624701 -0.03185714176999401 0.2485782864210526
-0.9610162199217935 -0.1378744051163887 0.239663250126147
-0.9445685435486458 -0.2391412979164421 0.224948229975763
-0.9201229064498535 -0.3332100930540716 0.2057786940214424
-0.88944031320701 -0.4184982168337926 0.1837258058878813
-0.8543812954808121 -0.4942905918088045 0.1603415503911275
-0.816680681271759 -0.5605974560338902 0.1369786739818493
-0.7778103141658487 -0.6179451405888859 0.1146948926491713
-0.7389247408427546 -0.6671661887128252 0.09423112017200162
-0.7008674792329732 -0.7092268487674112 0.07603981549862376
-0.6642128131180488 -0.7451044383396068 0.06033833654010155
-0.6293213719676012 -0.7757124519179482 0.04716781449527315
-0.5963873596558968 -0.801869011499976 0.03644455568008647
-0.5654533411550797 -0.8243049654452654 0.02799719483870267
-0.5363492440689487 -0.8437200265206495 0.0215871543900797
-0.5083934123785396 -0.8609586776311936 0.01692021458639441
-0.479815285603556 -0.8772621672902678 0.01372521556696348
-0.4508561586590767 -0.8925140898472843 0.01213769431377478
0 0 0
0 0 0
0 0 0
0 0 0
-0.3965536881241284 0.9176596640099909 0.02541482803839947
-0.4159317818426246 0.9089840035001222 0.0273648357222978
-0.4395921796966586 0.8976601833709826 0.03106301240886959
-0.4646212887186338 0.8847381811693628 0.0369514390864927
-0.491148831108139 0.8698931197380698 0.04537384635972819
-0.5196673744459189 0.8524919107507799 0.05659825121828876
-0.550572907116584 0.8317745455549971 0.07085604643198033
-0.5841352807403891 0.8068359459953637 0.08832740256632025
-0.6204855373171649 0.7765929609798938 0.1090920296662854
-0.659568472782697 0.739773694143897 0.1330575483157259
-0.7010622106694469 0.6949479351336751 0.1598722747217569
-0.7442782661053322 0.640618653576436 0.188832209363641
-0.7880653528198825 0.5753944973362213 0.2188016730284996
-0.8307529055085099 0.4982531411042249 0.2481802114773494
-0.8701822246488253 0.4088768502471238 0.274959301056014
-0.9038727162052606 0.3079927303497084 0.2969083881459996
-0.9293410185241494 0.1975982926078407 0.3118977172839874
-0.9445276885758899 0.08093607134110027 0.3183029969531456
-0.9482129386960343 -0.03785931042646759 0.3153710441741004
-0.9402714156194801 -0.1543848854205521 0.3034056230899834
-0.9216655737662907 -0.2646713862263799 0.2836928399643881
-0.8941891163479457 -0.365731328293522 0.2581984115162904
-0.8600731724576055 -0.4558063996681458 0.2291607820729189
-0.821596971823274 -0.5343118333138204 0.1987190999165661
-0.7808022830953786 -0.6015816243011759 0.1686634044960633
-0.7393424843648165 -0.6585451267660452 0.1403246479630495
-0.6984458529057379 -0.7064318586838075 0.1145749518669623
-0.6589519676649714 -0.7465507697343285 0.09189261406415461
-0.6213824218721296 -0.7801503357293611 0.0724523253573776
-0.5860172231944918 -0.8083463165036604 0.05621429279445505
-0.5529578992574168 -0.8320989383149275 0.04299905236158799
-0.5221651768119565 -0.8522232122240193 0.03254419566545697
-0.4934687174945592 -0.869417074171956 0.02454742333830278
-0.4665960353976845 -0.8842725975672129 0.01871130521625981
-0.4416170203887911 -0.8970811751853461 0.01482472364003819
-0.4215608656846764 -0.9067084129941098 0.01289536075062088
0 0 0
0 0 0
0 0 0
-0.3175756342399714 0.9479282258931632 0.02403736866047201
-0.3472148457989564 0.9374422671573388 0.02537413257068541
-0.3690188428463579 0.9289911985751391 0.02829216489172826
-0.3909855341813613 0.919794103831263 0.03330343252817765
-0.4141685102709257 0.9092853042829935 0.04080049650365893
-0.4390656947324347 0.8969956044306209 0.05118790229408695
-0.466159405356373 0.8823203426342849 0.06485539122933336
-0.4958923390342105 0.8644876811690568 0.0821695636724839
-0.5286379799507583 0.8425204103003197 0.1034468190954266
-0.5646636931384597 0.8151935825699118 0.1288966120115919
-0.6040649930372928 0.7810074241807067 0.1585335534247328
-0.6466641666895856 0.7381995806782948 0.1920594559141851
-0.6918779082533156 0.68482887104103 0.2287233644813847
-0.7385740046248975 0.6189683946678629 0.2671826455715824
-0.7849592437216326 0.5390384045258533 0.305412154542324
-0.8285664577888036 0.444272755563715 0.3407335376671007
-0.8664199809395139 0.3352377060540117 0.3700433718747244
-0.89542809359881 0.2142253991749902 0.3902768344935629
-0.9129589019484381 0.0852912775182716 0.3990381452097064
-0.9174321199106451 -0.04621929234186253 0.3951987884238468
-0.9086912015897001 -0.1745854455347936 0.3792099977069223
-0.8879911740593573 -0.2947512378888736 0.3529778782808634
-0.8576217029999866 -0.4031039835281258 0.3193621658981519
-0.820349430705962 -0.4977644427219085 0.2815268568043756
-0.778898230819777 -0.5784184121407667 0.2423833462149874
-0.7356025368930713 -0.6458857516482515 0.2042559755166311
-0.6922570213547591 -0.7016379114007011 0.1687733914759605
-0.6501144219309808 -0.7473987429241058 0.1369173381015439
-0.6099648670548001 -0.7848753719745495 0.1091490330998487
-0.5722426124796699 -0.8156095891200771 0.08555343708946353
-0.5371273423231528 -0.8409175713843731 0.06596860060569561
-0.5046239721472906 -0.8618850729824724 0.05008760030474634
-0.4746166877749275 -0.8793919757392052 0.0375333543805136
-0.4469023418809623 -0.894147174194128 0.027912859079044
-0.4212223982781426 -0.9067174795613925 0.02085913341068949
-0.397295036058567 -0.9175504336177724 0.01605789808969648
-0.3743099995728431 -0.9272095585312853 0.013208284824172
-0.3447096160269995 -0.9386339527156911 0.01189888347012533
0 0 0
0 0 0
-0.2867372809306202 0.9577212527901441 0.02348901186918476
-0.3020458458558053 0.952949771626597 0.02559374451046419
-0.3198339862195932 0.9470128438396653 0.02954479415386245
-0.3390298563988001 0.9400938362630836 0.03580971223518349
-0.3597418957798637 0.9319719630241914 0.04487792951490011
-0.3823100918548173 0.922258978405473 0.05724832238986235
-0.4071801773782261 0.9103910605640743 0.07343309877198112
-0.4348323191585411 0.8955974943887638 0.09394669903605973
-0.465733504699457 0.8768503283072087 0.1192719763729122
-0.5002875196522644 0.8528036719092407 0.1497941749812076
-0.5387589008455499 0.821739988884949 0.1856939348149474
-0.5811558856729311 0.7815515763460776 0.2267927910200662
-0.6270680667980122 0.7298010725156626 0.2723527751964195
-0.6754719060089468 0.663921043245 0.3208528518325972
-0.7245484030264382 0.5816144008237324 0.3698030562695344
-0.7715996053966161 0.4814784856934439 0.4157072488736919
-0.813184213107755 0.3637681809867605 0.4543172306372542
-0.8455704478396866 0.2310476329004376 0.481277060611968
-0.8654818783043865 0.0883533380956958 0.4930870166350542
-0.8709131402137175 -0.05742571557754429 0.4880702709584839
-0.8616601479994825 -0.1988785751029992 0.466893030269793
-0.8393027080985754 -0.3296031517993731 0.432357174685833
-0.8066704347240731 -0.4452969678546445 0.3885787181016657
-0.7670812587520625 -0.5440670412675859 0.3399667587833932
-0.7236759138968334 -0.6260633686288879 0.290409762416196
-0.6790210009443468 -0.6927870433433355 0.242850968398596
-0.6349808400375943 -0.7464001443216548 0.1992138482680446
-0.5927683056061089 -0.7892101115690789 0.1605401372429451
-0.553076579408783 -0.8233615158694206 0.1272089285179665
-0.5162242987651959 -0.85069444564616 0.09915358546796837
-0.4822799147836609 -0.8727108008415333 0.0760390813384379
-0.4511547914328883 -0.890598393370155 0.05739212396875498
-0.4226678006865401 -0.9052786593820898 0.04269050398119587
-0.3965936507353564 -0.9174562957728115 0.0314232643630913
-0.3727160212964274 -0.9276570784258406 0.02313249479399511
-0.3509104866161578 -0.9362465341553531 0.01744298325688835
-0.3312848223164568 -0.9434257756433271 0.01407737029915995
-0.3151044372452037 -0.9489704903658874 0.01281413450490636
0 0 0
0 0 0
-0.2434189313116386 0.9696248037290612 0.02397840429383224
-0.2536554407843219 0.9669341102520073 0.0264072677812326
-0.2677444726694153 0.962988099300799 0.03109369646746296
-0.2837917245960915 0.9581150820293122 0.03844147029888279
-0.3014770578427599 0.9522152506476048 0.04896631524417466
-0.3210071236775698 0.9449627988358301 0.06324346104228511
-0.3427942740632418 0.9358332730778084 0.08190342282182543
-0.3673421134786284 0.9240696585959328 0.1056174120467354
-0.3951891523144946 0.9086167756311967 0.1350595755010284
-0.4268575298314613 0.8880363581559693 0.1708334739425084
-0.4627770463782369 0.8604187365821108 0.2133471421975903
-0.5031633009147098 0.8233209978537906 0.2626199289955942
-0.547836047378678 0.773785768103924 0.3180113995949307
-0.5959806447437414 0.7085253352358623 0.3778874441149673
-0.6458912947660058 0.6243758458841158 0.4392940227478479
-0.6947949741511862 0.5190949863698158 0.4977954791076079
-0.7389187292236262 0.3924371996201622 0.5477153968593776
-0.7739665173718284 0.247175922043251 0.5829921899557416
-0.7960268480592895 0.08948588231775287 0.5986096675084737
-0.8026405180674574 -0.07184186029584846 0.5921207189970933
-0.7935241702155331 -0.2273026631042169 0.5644934814765179
-0.7705538884681854 -0.3688925370166677 0.5197739904034877
-0.7370516330357934 -0.4916012822243584 0.4637704923285183
-0.6968017892884645 -0.5936909274815736 0.4024901850610306
-0.6532474533840747 -0.6760120876286504 0.3409918210561277
-0.6090684707889594 -0.7409531839895358 0.2828850950943984
-0.5660996152885225 -0.7914999930212604 0.2303453637856231
-0.5254463177806042 -0.8306051801973832 0.184394147846607
-0.4876692061434744 -0.8608614719824119 0.145245555648591
-0.4529612454107518 -0.8843894507484612 0.1126117647529561
-0.4212873428715789 -0.9028469385478761 0.08593241699691453
-0.3924829443590675 -0.9174927631558651 0.06453036451045302
-0.3663215021567037 -0.9292643676415423 0.04771050292566772
-0.3425676217097169 -0.9388476934474353 0.03482000954305259
-0.3210426350115212 -0.9467271227267968 0.02528599609070653
-0.3017540142707791 -0.9532035149276646 0.01864333663846834
-0.2852364582718522 -0.9583465647924695 0.01456106531137772
-0.2736240023932928 -0.9617512232598043 0.01282536052299078
0 0 0
0 0 0
-0.192276604392506 0.9810204673265079 0.02507090125557873
-0.2010112308034742 0.9792019037281999 0.02753392136875204
-0.2124820504971663 0.9766170168439748 0.03271972841107064
-0.2253995676395197 0.9734045921753514 0.04096992604161016
-0.2396440037577653 0.9694246885187838 0.05278754354207259
-0.2554756423186461 0.9643639943484341 0.06880612317379653
-0.2733176895765385 0.9577259636461382 0.08976869789975843
-0.2936866845777211 0.9487752003699189 0.1165064395849666
-0.3171590038003504 0.9364509517778962 0.1498992368981273
-0.3443344329102547 0.9192548753211092 0.1907990369754127
-0.3757730756414959 0.8951237422312709 0.2398918125255946
-0.4118833109990668 0.8613153722413691 0.297469271793167
-0.4527401322084837 0.8143687590670787 0.3630838703982735
-0.4978241521669578 0.7502474233145646 0.4350861033509404
-0.5457067148482423 0.6648217275576748 0.5101139597548446
-0.5937778794758352 0.5548372805599093 0.5827378672662901
-0.6382104384655128 0.4193541540611982 0.6456233652101464
-0.6743980737948908 0.2612547690539855 0.6906034923950853
-0.6979629343697505 0.08796085626761546 0.7107113549188832
-0.7060456091485896 -0.0895187262147371 0.7024855838085842
-0.6982271951702328 -0.2592293168344376 0.6672922487323375
-0.6765328312709915 -0.4113762536760671 0.6107969434467562
-0.6445630326847225 -0.5402980108532034 0.5409404369839108
-0.6063253114887331 -0.6446287375032066 0.4656430042780756
-0.565337749623032 -0.7261591802007905 0.3912621549054818
-0.5242179165387737 -0.7883360841749281 0.3220586815589472
-0.4846610504004368 -0.8350503782464451 0.2603738312795927
-0.4476147979351437 -0.8699119901797223 0.2071089616869207
-0.4135005283702687 -0.8959349047089166 0.1622281096534517
-0.3824056671608854 -0.9154784055604077 0.1251606754368605
-0.3542245531416123 -0.9303142621232283 0.09508070067967246
-0.3287522109109327 -0.9417373610324613 0.07108253411906905
-0.3057446236674632 -0.9506770004354202 0.0522825586745007
-0.284962331639349 -0.9577902053125442 0.0378733699849821
-0.2662177851438416 -0.9635304888700105 0.02714936262650691
-0.249465032139207 -0.9681871127034055 0.0195169806790601
-0.2350468762073491 -0.9718758234969448 0.01450343708579075
-0.2245430093250511 -0.9743925105804703 0.01181830309044609
0 0 0
-0.10013636204984 0.9946630504316782 0.02486212181957441
-0.1302773340809434 0.991149032344649 0.02552277232253232
-0.1440476195046852 0.9891645874573433 0.02834964259698365
-0.1543726346095363 0.9874250713762754 0.03407078075517118
-0.1642805815857247 0.9854709760581611 0.04311433474878588
-0.1747376917005985 0.9830191655462283 0.05603623174289244
-0.1862756736110921 0.9797409490846862 0.07354621749193799
-0.1993674543731144 0.9751617436439458 0.09649969880824781
-0.2145215679035263 0.9685732151545011 0.1258825793725433