# OOMMF: rectangular mesh v1.0
# Segment count: 1
# Begin: Segment
# Begin: Header
# Title: 
# Desc: time = 2.7999999999999996e-10
# Desc: stepsize = 3.5640903223117084e-14
# Desc: step = 1790
# meshunit: m
# valueunit: (none)
# valuemultiplier: 384000.0000000001
# xmin: 0
# ymin: 0
# zmin: 0
# xmax: 9.357999999999999e-08
# ymax: 9.357999999999999e-08
# zmax: 2.3395e-08
# ValueRangeMaxMag: 1
# ValueRangeMinMag: 0
# meshtype: rectangular
# xbase: 1.16975e-09
# ybase: 1.16975e-09
# zbase: 1.16975e-09
# xstepsize: 2.3395e-09
# ystepsize: 2.3395e-09
# zstepsize: 2.3395e-09
# xnodes: 40
# ynodes: 40
# znodes: 10
# End: Header
# Begin: Data Text
0 0 0
0 0 0
0 0 0
0 0 0
0 0 0
0 0 0
0 0 0
0 0 0
0 0 0
0 0 0
0 0 0
0 0 0
0 0 0
0 0 0
0 0 0
0 0 0
-0.957104516738835 0.2874330269643922 0.03651299834589568
-0.9659036358560888 0.2559438503666807 0.03902450127119582
-0.9760810197670657 0.2133367544057539 0.04187209178084359
-0.9851011846659348 0.1660709706121756 0.04467760837042629
-0.9919840806787708 0.117130931790907 0.04741232432276581
-0.9963641186696747 0.068870851891308 0.05015325300882387
-0.9982900344324169 0.02469502341278088 0.05298266670870216
-0.9984164030663236 -0.007908519860259301 0.05569687066365017
0 0 0
0 0 0
0 0 0
0 0 0
0 0 0
0 0 0
0 0 0
0 0 0
0 0 0
0 0 0
0 0 0
0 0 0
0 0 0
0 0 0
0 0 0
0 0 0
0 0 0
0 0 0
0 0 0
0 0 0
0 0 0
0 0 0
0 0 0
0 0 0
0 0 0
0 0 0
0 0 0
0 0 0
-0.8717205484889233 0.4892687076619946 0.0268219508039906
-0.8866571685507615 0.4615011572650113 0.02925315881406982
-0.9058018923981581 0.4225124190077362 0.03172045888927467
-0.9259959277230608 0.3760065007938551 0.03392127947274567
-0.9471517787875656 0.3186988966826342 0.0365310989818453
-0.9618516697074545 0.2706849526700897 0.03963611836409664
-0.9741240698233748 0.2219120323448416 0.0428642798997709
-0.9841575133930994 0.1712239471033617 0.04600379082484318
-0.9916568229057959 0.1192262704621275 0.04900859124759357
-0.9964130133738358 0.06682899715993793 0.05191331156715395
-0.9983914478207722 0.01464635269792255 0.05477226735300982
-0.9975879305790258 -0.03882940032233157 0.05753780004192176
-0.9926392706330399 -0.1052498324261128 0.05991453222199941
-0.9851472258430543 -0.1604388314585936 0.06119088799759664
-0.9762913040267497 -0.2072017471609332 0.06263166655298814
-0.9685449573336625 -0.2403224007971939 0.06454308095068009
0 0 0
0 0 0
0 0 0
0 0 0
0 0 0
0 0 0
0 0 0
0 0 0
0 0 0
0 0 0
0 0 0
0 0 0
0 0 0
0 0 0
0 0 0
0 0 0
0 0 0
0 0 0
0 0 0
0 0 0
0 0 0
0 0 0
-0.8108481874150363 0.5849105353231002 0.02012169559937054
-0.8290417188280221 0.558741508761198 0.02231041976158495
-0.8556409877174598 0.5169452663018662 0.02541833562571781
-0.8776531819974345 0.4784385716677977 0.02866051762014733
-0.8991703140691852 0.4364332008638956 0.03191876376704852
-0.9201670672395313 0.3899439101069917 0.03516127611833149
-0.9401170968767537 0.3386521607380326 0.03865951613103378
-0.9569454594266636 0.2871496419471896 0.04243195508448164
-0.9710601467997345 0.234314746286495 0.04624706444708311
-0.9824421301727722 0.1797701560236692 0.04990142147084273
-0.9908841170999404 0.1237298530742233 0.05328780289430179
-0.9961872525861987 0.0665901440786892 0.05636231450481486
-0.9982156443186678 0.008561888686229127 0.05909502093739021
-0.9968216969222287 -0.05075910147795176 0.06140047363203978
-0.9916709202368342 -0.1122656808761597 0.06312846310533608
-0.9834128996465642 -0.1696124354253512 0.06427044855776973
-0.9727149818173169 -0.2225880723506258 0.06542258169293719
-0.9598755179647158 -0.2723189073660985 0.06694327974414183
-0.9424913865730102 -0.3270592093894368 0.06886406747528288
-0.9300035518161237 -0.3607289181751036 0.0704843330224031
0 0 0
0 0 0
0 0 0
0 0 0
0 0 0
0 0 0
0 0 0
0 0 0
0 0 0
0 0 0
0 0 0
0 0 0
0 0 0
0 0 0
0 0 0
0 0 0
0 0 0
0 0 0
0 0 0
-0.7673998021289187 0.6409491738450156 0.01678392802319317
-0.7914895271613638 0.6108864910067723 0.01902691512865082
-0.8153399844394088 0.5785648644605508 0.02198652737674849
-0.8408144338482011 0.5407171574889182 0.02561334475683657
-0.865192325606897 0.5005613852647324 0.02967388233414165
-0.8887451088751432 0.4571389405687892 0.03400177151493462
-0.9112859653984856 0.4099692959512158 0.03851059133555036
-0.9323280158269287 0.3590227274480831 0.04321055519153442
-0.9509935941191717 0.3054600929905906 0.04801370152861609
-0.9669550670111995 0.249436595877339 0.05271890570270926
-0.9799057250154218 0.191109637247669 0.05711284122738061
-0.9895271440459674 0.1308108856296318 0.06102903732668428
-0.9955402058777347 0.06898159320900368 0.06435245356056327
-0.99773423572437 0.006081553710156285 0.06700305640772464
-0.9959680379220044 -0.05742432707611078 0.06892107150681898
-0.9902051015844343 -0.120748655400259 0.07009721117982462
-0.9808173422005152 -0.1816676861418638 0.07066960485653118
-0.968279179601664 -0.2395745732759151 0.07098911317653711
-0.9529413871824696 -0.2946402802899479 0.07134295918596831
-0.9349478659822954 -0.3474270948622487 0.07188116339298541
-0.9167158539212527 -0.3928766676738836 0.07266338257260502
-0.8975049193364673 -0.4347712638352002 0.07388415195414767
0 0 0
0 0 0
0 0 0
0 0 0
0 0 0
0 0 0
0 0 0
0 0 0
0 0 0
0 0 0
0 0 0
0 0 0
0 0 0
0 0 0
0 0 0
0 0 0
-0.6855552497395445 0.7279129004920116 0.01252233412174984
-0.7078196705764328 0.7062532677615505 0.01405829723689549
-0.7416930431800783 0.6705453492268175 0.01613580889075426
-0.7698003983221443 0.6380000517484249 0.01905992424105593
-0.7965635166280308 0.604121604947364 0.02288340912113629
-0.8233339933705599 0.5668904034280249 0.02750283370304356
-0.8496168633189092 0.5263824230045507 0.03275256197605622
-0.8751964154641091 0.4822357399874814 0.03846979903118589
-0.8997321655837311 0.4341670005504086 0.04450894120365133
-0.9227219424251499 0.3821130227841887 0.05073317244060024
-0.9435153532710419 0.3263976082152711 0.05695067596763661
-0.9615621090885489 0.2672840184127707 0.06290917155949792
-0.9763484731918738 0.2051174153814692 0.06834109161494321
-0.9874008254310348 0.1403901299563133 0.0730083649245738
-0.9943218769901817 0.07373600617594386 0.07672682928378101
-0.9968270888058935 0.005911071411359912 0.07937766850655328
-0.9947779862980702 -0.06220067698680523 0.08091868609375114
-0.9882288362900502 -0.1295239291357649 0.08140834666080682
-0.9774989788077159 -0.1947541403982966 0.08103438299630743
-0.9630515449176371 -0.2571300497434185 0.08009905961182429
-0.9453791288803486 -0.3162776732112771 0.07890967054482685
-0.9250074741403471 -0.3719145540822379 0.07772217988646694
-0.9027620928126515 -0.423241171691595 0.07673013987766954
-0.8780544810496466 -0.4724799895453667 0.07604595839257439
-0.8476846516130342 -0.5250908691021833 0.07556659715245749
-0.8275043711481563 -0.556340538902669 0.07564205512928251
0 0 0
0 0 0
0 0 0
0 0 0
0 0 0
0 0 0
0 0 0
0 0 0
0 0 0
0 0 0
0 0 0
0 0 0
0 0 0
-0.6356350053750188 0.7719408874221199 0.008683678244232074
-0.6617517377587763 0.7496458806714601 0.01075598277936666
-0.6881163811266697 0.7254807908185134 0.01317073188851422
-0.7173861579585264 0.6964863492186469 0.01624394415110604
-0.7459373363586683 0.6657080694895046 0.02025478814234398
-0.774195040510973 0.6324415469436084 0.02529286357428808
-0.8025090562541706 0.5958185132849599 0.03129718608660311
-0.8306856074651489 0.5554342813804345 0.0381337202178899
-0.8584181656904758 0.5109169135633248 0.04563069413809185
-0.8852761792203987 0.4619682647557889 0.05358552848910721
-0.9106952668632999 0.40843631373265 0.06175685012423007
-0.9339970638777908 0.3503870185629334 0.06984570058524496
-0.9544761651138439 0.2880428279133143 0.07750212588871593
-0.9714318745342228 0.221818817661378 0.08435950017771365
-0.9842132566489628 0.1523484816335299 0.09007888531948016
-0.9922770960988748 0.0804783875403258 0.09438958468227657
-0.9952461454288627 0.0072409744455073 0.09712197639087608
-0.9929598924517136 -0.06618880286646961 0.09823285782967139
-0.9855115925201844 -0.1385559808807159 0.09782198715274583
-0.9732557463817286 -0.2086435183259766 0.09613081917627433
-0.9567342910604743 -0.2755281946424247 0.09350780858354649
-0.9365919925795761 -0.3385766449290648 0.09033988567845407
-0.9135314157425667 -0.3973559803250739 0.08699757095046291
-0.8882734404527205 -0.4516052986252475 0.08380303836906967
-0.8611694428170943 -0.5018201184166478 0.08101703222407214
-0.8325593681971107 -0.5482909970894508 0.07887890046065993
-0.8062520806526484 -0.5864370072300658 0.07777672527381412
-0.7803048631328285 -0.6205165044139636 0.07799736098825741
0 0 0
0 0 0
0 0 0
0 0 0
0 0 0
0 0 0
0 0 0
0 0 0
0 0 0
0 0 0
0 0 0
-0.5801486258534823 0.8144934165546852 0.005295876640530476
-0.6073946860325518 0.7943676911490346 0.007187950888058796
-0.6340278371010489 0.773249007369967 0.009730076172657087
-0.6612270229041359 0.7500722166481072 0.01305733487076922
-0.689685946421429 0.7239010119945883 0.01733840079094956
-0.7186279749367017 0.6950227668088966 0.02274175137671378
-0.7480077607763949 0.6630406577775549 0.02935091058536359
-0.77784236660936 0.6273608993131514 0.03714235749845533
-0.8079412093055266 0.5874644790468164 0.04600530582634355
-0.8379585244395352 0.5428783168034359 0.05575521916183851
-0.8673984043095833 0.4932000916931817 0.06613378678879073
-0.8956121325508073 0.4381555149268264 0.07680268723815746
-0.9218130598421933 0.3776669088232555 0.08734064737714577
-0.9451254076359275 0.3118949772133202 0.09725989425309833
-0.9646421386451476 0.24128776773582 0.1060460159137534
-0.9795018670000832 0.1666092000150941 0.113214252696738
-0.9889791393994671 0.08893014218688952 0.1183709915617344
-0.9925734102789677 0.009576525792688377 0.1212695978426634
-0.9900795127199951 -0.06996460977433862 0.1218503667260011
-0.9816225918856435 -0.148174632154579 0.120255417697358
-0.9676428721398703 -0.2236567143264933 0.1168115839015087
-0.9488233562045418 -0.2952872846754961 0.1119806154194581
-0.9259971608517646 -0.3622594315744084 0.1062890508465324
-0.9000651848676101 -0.4240635209802707 0.1002636183420959
-0.871916144077289 -0.4804720406001496 0.09438673582087433
-0.8423180474034657 -0.5315687479995183 0.08907846635768367
-0.8120831002669943 -0.5773606270397768 0.08470976688069673
-0.7825732223231914 -0.6171847766862454 0.08162170746465508
-0.7536893326381102 -0.6523417545760327 0.08001640521906987
-0.7250467631598138 -0.6840542030937955 0.07985636143219071
0 0 0
0 0 0
0 0 0
0 0 0
0 0 0
0 0 0
0 0 0
0 0 0
0 0 0
-0.5248394598727475 0.8511990142410526 0.001944097616462064
-0.5504095413577943 0.8348860705849559 0.003819152460144986
-0.5760251161264934 0.8174082156340058 0.00623495031973737
-0.6022532146651531 0.7982480758584467 0.009543312515878786
-0.629429434315478 0.7769326202066131 0.0139388262125277
-0.6577705133348651 0.7529637188962289 0.0195854490157408
-0.6871330086709344 0.7260436239637037 0.02662488491019768
-0.7174776202945885 0.6956945369617652 0.03514221987821135
-0.7487494879432379 0.6613143910647936 0.0451384589384674
-0.7807555608762942 0.6222751275305245 0.05651919866392326
-0.8131364643956991 0.5779587046533861 0.06908564239725505
-0.8453497135368616 0.5278010044805004 0.08252249082838201
-0.8766578466357829 0.4713603010761573 0.09638716979611761
-0.9061350284893285 0.4084054838652497 0.1101102669755851
-0.9327059602214144 0.3390072419379127 0.1230190297518977
-0.9552187190081179 0.2636218884469575 0.1343900992936216
-0.9725524794203051 0.183142737849992 0.1435284374130268
-0.9837488504036459 0.09889395769751964 0.1498605500471208
-0.9881428751778718 0.01255277534965424 0.1530231553269947
-0.9854633579137454 -0.0739977853457295 0.1529257923742488
-0.9758749175957354 -0.1588622453409711 0.1497695970908011
-0.9599479411021344 -0.2403320851951831 0.1440154130623094
-0.9385646047868196 -0.3170429735316217 0.136309337815088
-0.9127945184358484 -0.388044599896322 0.1273874232597963
-0.8837730417238782 -0.4527963101860106 0.1179860678387835
-0.8525974520112294 -0.511121601151146 0.1087763469723423
-0.820255254376567 -0.5631299967685517 0.1003290805653263
-0.7876569565394547 -0.6090382382104068 0.09310715983514191
-0.7556968803594521 -0.6490544662482931 0.08746727878546601
-0.7248449535975968 -0.6838156474411448 0.08364181704592957
-0.6954589870349722 -0.713901527436904 0.08173987078253241
-0.6676799471564775 -0.7399433857267174 0.08177575486906502
0 0 0
0 0 0
0 0 0
0 0 0
0 0 0
0 0 0
0 0 0
0 0 0
-0.4981337598099789 0.8670993737712417 0.001197223076225586
-0.5173050046202029 0.8557956875202387 0.003045228505884415
-0.5409219812299427 0.8410512805152422 0.006012800174970683
-0.5663231674896615 0.8241200239408222 0.01021058785060649
-0.5931079676257784 0.8049676086688364 0.01581416241199656
-0.6213052670274818 0.7832310396368399 0.02299790671568934
-0.6509388807913801 0.7584588687588769 0.03191736008929175
-0.6820344802960129 0.7300734460357499 0.04268174177364395
-0.7145606336622962 0.6973825657832587 0.05532321178037093
-0.7483545139928582 0.6596195479488223 0.06976799660520407
-0.7830718482684372 0.6159833957049156 0.08580755599184704
-0.8181471555398894 0.5656959490041655 0.1030695161639165
-0.8527637331512344 0.5080889014877018 0.1209945602371853
-0.8858457008019166 0.4427226723056917 0.1388309396253865
-0.9160900957410263 0.3695247624541595 0.1556611268698572
-0.9420521827899893 0.2889242027757753 0.1704713757526423
-0.9622880421802718 0.2019436177201474 0.1822649147229322
-0.975539224574653 0.1102072915699479 0.1902040330831615
-0.9809229755661045 0.01583654089881242 0.1937506644605353
-0.9780782933326699 -0.07876433336251282 0.1927667811149265
-0.9672238091244694 -0.1711893931703827 0.1875427810626352
-0.9491097177502845 -0.2593092929704768 0.1787440467571606
-0.9248820283040127 -0.3414763733385088 0.1672935150322155
-0.8959048713321571 -0.4166154625349617 0.1542271633017026
-0.8635884974881028 -0.484208077580659 0.140561177470462
-0.8292545249116174 -0.5442040745754022 0.1271961403861661
-0.7940568247340913 -0.5968915945100337 0.1148659370591697
-0.7589732532064829 -0.6427422507829913 0.1041249248527065
-0.7248353051964939 -0.682290616542085 0.09535876949356233
-0.6923587837790653 -0.7160675884708704 0.08880609925835624
-0.6626767221099662 -0.7441117500587244 0.08460062291811074
-0.6394016097769707 -0.7644010670691572 0.08280452933355728
0 0 0
0 0 0
0 0 0
0 0 0
0 0 0
0 0 0
0 0 0
-0.4230609824145701 0.9061011565891199 -0.0003149385294063206
-0.4540136175392602 0.8909945141565865 0.0006409616074510031
-0.4776551038698227 0.8785429364953398 0.002812557777782928
-0.5013013469936803 0.8652487772583346 0.00644305480947012
-0.5260449182922159 0.850377071648741 0.01164388049780255
-0.5522086514223092 0.833498613035455 0.01859213173164144
-0.5800045567105835 0.8141492169003431 0.02749121342387055
-0.6095924238364131 0.7917776431885113 0.03853881871688069
-0.6410898166042651 0.7657093552951004 0.0518944145344255
-0.674536537356301 0.735136099851898 0.06764151436737001
-0.70983635608395 0.699128191745007 0.08574449888369401
-0.7466946819854137 0.6566666409548881 0.1059998799608992
-0.7845561157657982 0.6067054798671057 0.127985006597287
-0.8225485897381706 0.5482780932179617 0.1510130789601433
-0.8594517708584393 0.4806537293264346 0.1741110164604253
-0.8937150930204627 0.4035354600334359 0.1960419980591614
-0.9235513779795065 0.3172673018695387 0.2153933875414402
-0.9471187736770679 0.2229934181782955 0.2307378685816578
-0.9627752619467929 0.1226984938615735 0.2408503157303004
-0.9693526006783338 0.0190755002164728 0.2449319514674255
-0.9663709966168392 -0.08478099542816367 0.2427741331196256
-0.9541227252552168 -0.1857872967873284 0.2348039725047567
-0.9335972873406054 -0.2812727415192656 0.221994932258596
-0.9062800195799015 -0.3692611526297034 0.2056762681225897
-0.8738961212070888 -0.448577506949618 0.187306672593557
-0.8381735428067195 -0.5187952255497971 0.1682754470669053
-0.8006712563999724 -0.5800818717937556 0.1497683584444384
-0.7626883467323394 -0.6330054908955086 0.1327046881418516
-0.7252454205624029 -0.6783498291165124 0.1177310039490926
-0.6891044182077387 -0.7169782996636065 0.105248366343887
-0.6547839574383839 -0.7497648133539149 0.09544995410002652
-0.622528511643213 -0.7775945571134801 0.08834566734580697
-0.5915998026341441 -0.8018731530785337 0.08372048671102639
-0.5544359462996329 -0.8282709734063062 0.08104305067925467
0 0 0
0 0 0
0 0 0
0 0 0
0 0 0
-0.3610610225957893 0.9325377438084572 -0.002879988665638939
-0.3878526613189486 0.9217198416599015 -0.001687186490648411
-0.4125788922406115 0.9109218716441684 -3.791825733991236e-05
-0.4352313674335967 0.9003141119006812 0.002855996212970553
-0.4578809704879817 0.8889830918080156 0.007353865952331911
-0.4815226489166941 0.8763266792769319 0.01369269030229931
-0.5066553925385544 0.8618648610819384 0.02211954890619539
-0.5336167861264067 0.8450860774344228 0.03290360604287039
-0.5626778800390628 0.8253777607900636 0.04631582135648292
-0.5940581414805183 0.801982940283711 0.06259623019483876
-0.6278976298837533 0.7739737363674586 0.08190983945632094
-0.664201059279461 0.7402436522639936 0.1042894440243351
-0.7027636898660025 0.6995256254405451 0.1295650244392162
-0.7430843817806976 0.6504518598974521 0.1572831189592295
-0.7842770759507451 0.5916751599624049 0.1866279004372362
-0.8250033393216198 0.5220678555342596 0.216366920591007
-0.8634630305105008 0.4409954602109015 0.2448562823678342
-0.8974858825992248 0.3486279895162661 0.270143694098041
-0.9247544202710973 0.2462054981613092 0.2901932371097019
-0.9431469778871845 0.1361421150348141 0.3032146147798906
-0.9511280154691995 0.02186748579761836 0.3080216084214101
-0.9480631509773185 -0.09261080330681382 0.3043016609711884
-0.93434164779038 -0.2033170664322235 0.2926907168014585
-0.9112614524523686 -0.3068959228895412 0.2746223912724083
-0.8807310334119109 -0.401000104511353 0.2520154022417492
-0.8449048703014909 -0.4844010716452146 0.2269170816174664
-0.8058649822064065 -0.5568631329163922 0.2012090496275155
-0.7654108995269684 -0.6188855717774971 0.1764279000922383
-0.7249656449002284 -0.6714172647351222 0.1536999360117036
-0.6855696498876515 -0.7156137686019417 0.1337579505683639
-0.6479173567546656 -0.7526711572512869 0.1170009737483212
-0.6123871402990073 -0.7837450998251896 0.1035645156238712
-0.5789985238512034 -0.8099634961516302 0.09338010644647365
-0.5471129578502107 -0.8326065680072335 0.08621899015651235
-0.5148451620452076 -0.8533749151988107 0.08176621079679332
-0.4825701394979913 -0.8722054677878147 0.07989795007337698
0 0 0
0 0 0
0 0 0
0 0 0
-0.3327835688859673 0.9429938656841835 -0.004203041936262929
-0.3496868583020284 0.93686213261116 -0.002906133191317062
-0.3696240750011743 0.9291811972774001 -0.000588052431965262
-0.3899324772990154 0.9208381294674763 0.003130889057616697
-0.410814074357247 0.9116784539381917 0.008613532078427407
-0.4328108977491452 0.9013393532282309 0.01618941356853052
-0.4563895836027125 0.8893942852130861 0.02619834745257141
-0.4819479776199566 0.8753313031742948 0.03900328897957216
-0.5098449855199964 0.8585077397632633 0.05497773646383353
-0.5404029906249836 0.8381038693858918 0.07447490747875662
-0.5738793681725959 0.813081699579588 0.09777842601816705
-0.6104090391270107 0.7821559524881203 0.1250314797938515
-0.6499186467255291 0.7437913740153344 0.1561414249289328
-0.6920151822737671 0.6962493000884714 0.1906617413875105
-0.7358588406675393 0.6377154969496288 0.227663592964954
-0.7800472768924311 0.5665406165738157 0.2656275128537379
-0.8225599753064766 0.4816061866613774 0.3024079496198709
-0.860829712092395 0.3827790116725461 0.3353392834159343
-0.8919999773597577 0.2713402661179282 0.3615390717104349
-0.9133733681424638 0.1502036801863331 0.3784018298404122
-0.9229569843584153 0.02374028680600095 0.3841702797020976
-0.9199194894615601 -0.1028434226765592 0.3783799192887389
-0.9047702277719607 -0.2244092587452628 0.3619824851106409
-0.8791864905089058 -0.3367503580711362 0.3370909539658317
-0.8455795513660063 -0.4371194310826594 0.3064666789092004
-0.8065870551226147 -0.5243179248300306 0.2729616020808745
-0.7646593057334075 -0.598440856892773 0.2390913778385715
-0.7218165210836403 -0.6604626255509949 0.2068091635808159
-0.6795680619766451 -0.7118259605354831 0.1774571808889207
-0.6389400608638396 -0.7541238612488105 0.1518314872432503
-0.6005512015254342 -0.7888987259779318 0.1302960264043094
-0.5646897569170485 -0.8175442206590864 0.1129022838559571
-0.5313683477519866 -0.8412779832618285 0.09949388868786614
-0.5004008116651091 -0.8611245122669411 0.08979756153661404
-0.471937201204627 -0.8776666605046781 0.08352551201704
-0.4493848633339751 -0.8897028547047645 0.08051133421137964
0 0 0
0 0 0
0 0 0
-0.2603566812675436 0.9654871502792753 -0.006997225518308134
-0.2871675023848079 0.9578633659945289 -0.005709436023110492
-0.3057181947771415 0.9521140498140104 -0.003901477792980686
-0.3234981395995334 0.9462283569791302 -0.0009220218086717311
-0.3414870540875628 0.9398795167268696 0.003617447700159608
-0.3601610402061661 0.9328353842180351 0.01010797053827383
-0.3799910171555788 0.9247959557111288 0.01895434465783405
-0.4014294513381123 0.9153789174374373 0.03059138946577804
-0.4249117213697148 0.9040910305358534 0.04549107107162679
-0.4508661684781203 0.8902831686751937 0.06415276841660855
-0.4797100715735262 0.8730958529454497 0.08707398463593594
-0.5118221838613545 0.8514003503483324 0.1146974085763486
-0.5474850350382595 0.8237444011764457 0.147327179907898
-0.5867917913106053 0.7883196017299947 0.1850070246740726
-0.6295134789020006 0.7429816418956279 0.2273566794417454
-0.6749325996813753 0.6853694928879116 0.2733763781051807
-0.721668936383125 0.6131794835233799 0.3212551435318187
-0.7675574427650891 0.5246343970261155 0.3682584982223228
-0.8096725044871969 0.4191249807039484 0.410809793003215
-0.8446007678235056 0.2978780048155863 0.4448800256687525
-0.8690010380436621 0.1643666783822163 0.4667127498972297
-0.880342411849879 0.02414287113228572 0.4737239276961076
-0.8775513402244081 -0.1160373070113261 0.4652300384239005
-0.8612700622501104 -0.2495474990194599 0.4426510201104513
-0.8336066102453326 -0.3711493145400577 0.4090821502726937
-0.797522554070238 -0.4776972971629534 0.3684604022584954
-0.7561502209124042 -0.5681578469824591 0.3247052576204736
-0.7122783888648635 -0.6431424559947286 0.2811179077418266
-0.668091983239578 -0.7042700752683395 0.2401182271559877
-0.6251255655959121 -0.7535970746825811 0.2032473278255996
-0.5843420822516849 -0.7932184054048774 0.1713151839058872
-0.5462567033337264 -0.8250431760750635 0.1445938161711631
-0.5110557673996321 -0.8507017328653871 0.1229982288791189
-0.4786918700498062 -0.8715323834119977 0.1062327548942481
-0.4489639865347015 -0.8886023104678037 0.0939003334719798
-0.4215714098520182 -0.9027486723442031 0.08557091197456809
-0.3955163667485959 -0.9149014821907241 0.08075940514395717
-0.3621237938892271 -0.9288005568815607 0.07871393419067785
0 0 0
0 0 0
-0.2324302951067656 0.9725779105758391 -0.008268359965336735
-0.2456103944540872 0.9693441778828892 -0.006884688856631514
-0.2600824686561786 0.9655754154781422 -0.004607224969569589
-0.2748914287921618 0.96147471661953 -0.00103521881613059
-0.2901472393476623 0.9569725459948086 0.004257430110216167
-0.3061448040021541 0.951912966905119 0.01170736607337241
-0.3232657140845292 0.9460573891195626 0.02178748699816754
-0.3419313638736086 0.939072009393191 0.03502432831286851
-0.3625887077186237 0.9304971200570272 0.05200517859325149
-0.3857093253116213 0.9196983472904042 0.07337074593427675
-0.4117837397914998 0.9058015385254259 0.09978839836522717
-0.4412973374574092 0.8876145897405512 0.1318976877458961
-0.474677565540513 0.8635435892264489 0.1702165628792725
-0.5122002468342928 0.8315219148172233 0.2149935169292028
-0.5538449192345191 0.7889887907921738 0.2659934086446729
-0.5990958159922475 0.7329800962543752 0.3222179103580514
-0.6467089014830998 0.6604176699859242 0.3815967739812338
-0.6945079076682132 0.5686820086110476 0.4407488392139271
-0.7393308840245959 0.4564806931270092 0.4949901218506227
-0.777282626305551 0.3248454519484457 0.5388015879634678
-0.8043891953520732 0.1778423199036774 0.5668598871433058
-0.8175474879329923 0.02245892890704765 0.5754230630473559
-0.8154035278718343 -0.1326031379024544 0.5635011043046757
-0.7987149121919365 -0.2788708096202021 0.533184358907873
-0.7700103346431145 -0.4099063840433386 0.4889384837209206
-0.7327682130655347 -0.5222189410472095 0.4362775762427791
-0.6905440540950964 -0.6151320426768833 0.380475333531719
-0.6463675087866875 -0.6899953419900773 0.3257536977792992
-0.602489101945356 -0.7492491164039977 0.2750138971123219
-0.5603887222533549 -0.7956701211113119 0.229942467460802
-0.5209151031781205 -0.8318997814452371 0.1912856735678183
-0.4844572070456135 -0.8602170095349206 0.1591474506498964
-0.4510968203959459 -0.8824728815576456 0.133241404765984
-0.4207311702623993 -0.9001102396599998 0.1130789053221202
-0.3931810515351096 -0.9142127396807133 0.09810059795551307
-0.3683111485252287 -0.9255508302594609 0.08776422094480725
-0.3461985981043643 -0.9346064642351394 0.08159220355195217
-0.3281654534138586 -0.9413012016641966 0.07911689409484786
0 0 0
0 0 0
-0.193438208384433 0.9810727023206095 -0.008832457096218304
-0.2016214509572324 0.9794347911896126 -0.007502021144967634
-0.2123714542272501 0.9771762400399215 -0.004996131587949764
-0.2240010197690602 0.9745884148055651 -0.0009822775555973847
-0.2361962144365287 0.9716927803130422 0.004948633484386498
-0.2490871954279135 0.9683903384010659 0.01325600110608498
-0.2629710415225575 0.9644934348482731 0.02446723227340621
-0.2782244302461745 0.9597161448253867 0.03919295568961838
-0.2952781737550663 0.9536410125147256 0.05813449366564829
-0.3146129239150245 0.9456646369382427 0.08207985471539118
-0.3367551645346728 0.9349217033989966 0.1118810425082952
-0.3622604708266659 0.9201871022220771 0.1484016448041535
-0.3916703132085662 0.899761040546732 0.1924173476206477
-0.4254279385015726 0.8713535321359048 0.244446499620232
-0.4637355801842508 0.832008460050955 0.3044851951652398
-0.5063408786300942 0.7781438816533341 0.3716329023022385
-0.5522596936504647 0.7058305708724887 0.4436354764791821
-0.5994926490995206 0.6114527783897041 0.5164630320508427
-0.6448712558819581 0.4928283205548918 0.5841757524891548
-0.6842422440350818 0.3506220841074525 0.6394346765807913
-0.7131623143728445 0.1894839115372676 0.6749039640029567
-0.7280292840692176 0.01806362744700655 0.6853080087822683
-0.7271963994903666 -0.1526101942631675 0.6692499721144595
-0.7114569369302922 -0.3118869646497344 0.6297265661978545
-0.68362400927828 -0.4520184230723968 0.5730074686611277
-0.6475115710415418 -0.5692863294414515 0.506598302877529
-0.6068988085104847 -0.6636042975882938 0.4373821812224412
-0.5648746049045078 -0.7372828838295724 0.3705814754489554
-0.5236187277332601 -0.7937307208700531 0.3095399339570049
-0.4844743375702265 -0.8365099582155402 0.2559994258628809
-0.4481419874976026 -0.868814596571022 0.2105468019867082
-0.4148843344803106 -0.8932687174147261 0.1730375320301329
-0.3846956382844535 -0.911911410570971 0.1429225145153061
-0.3574340752648658 -0.9262650888468748 0.119473289998396
-0.3329439200253337 -0.9374214397696042 0.1019283590491164
-0.3112295072689568 -0.9461024322794506 0.08959007445040663
-0.2928501877221914 -0.9526444651058418 0.08189805036923091
-0.280096300737563 -0.9567607084788555 0.07845386557825137
0 0 0
0 0 0
-0.1476722985249898 0.9889964901939017 -0.008878886894728509
-0.1541943725326569 0.9880097835990467 -0.007795062015445014
-0.1623412680293531 0.9867208430823258 -0.005224033070838256
-0.1709836889047915 0.9852734518881464 -0.0008961768381336922
-0.1799569909017208 0.9836588215539428 0.005550153574940403
-0.1894024185063247 0.9817913082100653 0.01457912847610369
-0.1995829067496545 0.9795154481908318 0.02676098071580806
-0.2108305613816353 0.9765860482675665 0.04278042445607395
-0.2235357285828636 0.9726286991256267 0.06344439836674882
-0.2381489447427579 0.9670792079372648 0.08968213698024056
-0.2551835966791594 0.9590974990221528 0.1225288511140899
-0.2752084031774311 0.9474521958339291 0.1630787277053439
-0.2988188717983028 0.930376076486375 0.2123855883976308
-0.3265712682735321 0.9054054224309477 0.2712788745384593
-0.3588594683422077 0.8692425396341409 0.3400548327425096
-0.3957130479356121 0.8177292436639828 0.4180072580114344
-0.4365104395939636 0.7460868084946622 0.5028052409390071
-0.4796457653702271 0.6496360530673753 0.5898414518474017
-0.5222795842009156 0.5251652756796383 0.6718820351425149
-0.5604104726177078 0.3728169643769661 0.7395590667777258
-0.5895136618116303 0.197766802164054 0.7831742682821274
-0.6057397530423642 0.01045112484227944 0.7955941965435057
-0.6071892024645654 -0.1755256411130229 0.7749271073606255
-0.5945144518274881 -0.3471444413220554 0.7252884277495808
-0.5704812666483772 -0.4953513624578825 0.6551168995792904
-0.5388491500139283 -0.6163766313145305 0.5742137597607859
-0.50326662127537 -0.7109436080682939 0.4912045338317929
-0.4666218833561671 -0.7824821475428719 0.4122932290856087
-0.4308728261859055 -0.8354347936028759 0.341170504722038
-0.3971663254776547 -0.8741421066299249 0.2795254681118947
-0.3660567885319458 -0.9023059942974656 0.2276978704874935
-0.3377147222770739 -0.9228416484432727 0.1852351431446569
-0.3120874079008523 -0.9379302020522884 0.1512890805969807
-0.289014620971426 -0.9491461919848799 0.1248681508846186
-0.2683229562321743 -0.9575911603918714 0.1049855261365817
-0.2499468685830455 -0.9639981314713423 0.09074230218200316
-0.2342101009026169 -0.9687733491215492 0.0813868949340241
-0.222768117381809 -0.9718692468871871 0.0764495443615978
0 0 0
-0.06559332245122558 0.9977988655215289 -0.009743716629646975
-0.09216797628856939 0.9956985815971858 -0.009455091338609905
-0.1031126295298967 0.9946351909969307 -0.008283867570691633
-0.1102092334215078 0.9938928978860644 -0.005552693065907068
-0.1161940010658635 0.9932260864263133 -0.0009462338902364812
-0.1218745100981245 0.9925279194081942 0.00591041314822667
-0.1276234749444561 0.9917015045951425 0.01550401324920636
-0.1337261809375346 0.9906099822948945 0.02844594012455729