# OOMMF: rectangular mesh v1.0
# Segment count: 1
# Begin: Segment
# Begin: Header
# Title: 
# Desc: time = 3.5399999999999998e-09
# Desc: stepsize = 2.960116864317401e-14
# Desc: step = 22654
# meshunit: m
# valueunit: (none)
# valuemultiplier: 384000.0000000001
# xmin: 0
# ymin: 0
# zmin: 0
# xmax: 9.357999999999999e-08
# ymax: 9.357999999999999e-08
# zmax: 2.3395e-08
# ValueRangeMaxMag: 1
# ValueRangeMinMag: 0
# meshtype: rectangular
# xbase: 1.16975e-09
# ybase: 1.16975e-09
# zbase: 1.16975e-09
# xstepsize: 2.3395e-09
# ystepsize: 2.3395e-09
# zstepsize: 2.3395e-09
# xnodes: 40
# ynodes: 40
# znodes: 10
# End: Header
# Begin: Data Text
0 0 0
0 0 0
0 0 0
0 0 0
0 0 0
0 0 0
0 0 0
0 0 0
0 0 0
0 0 0
0 0 0
0 0 0
0 0 0
0 0 0
0 0 0
0 0 0
-0.9862998431580328 0.1644274563269928 0.01327520215568301
-0.9909906110250122 0.133166656115617 0.01429162549387983
-0.9957459666301853 0.09092035019456404 0.01494857385221792
-0.9988971940472089 0.04441173094790615 0.0152313452729095
-0.9998773238076031 -0.003300773486633552 0.01531150644890858
-0.998632782536548 -0.04994707445604876 0.01542256128510103
-0.995596366782188 -0.09239695970766626 0.01583275992637397
-0.9921702371574227 -0.1237703058653808 0.01670724049545528
0 0 0
0 0 0
0 0 0
0 0 0
0 0 0
0 0 0
0 0 0
0 0 0
0 0 0
0 0 0
0 0 0
0 0 0
0 0 0
0 0 0
0 0 0
0 0 0
0 0 0
0 0 0
0 0 0
0 0 0
0 0 0
0 0 0
0 0 0
0 0 0
0 0 0
0 0 0
0 0 0
0 0 0
-0.9270355918396941 0.3746654208886553 0.0151932173272827
-0.9383704963994927 0.3452419046835693 0.01639630255363346
-0.9525194569667169 0.304010406751288 0.01686287895782348
-0.9667599447681351 0.2551570344100836 0.016434627557785
-0.9806070489898858 0.1953608224322046 0.01561936394222231
-0.9891342369130898 0.1461293965635186 0.01611399473565428
-0.9951371330408557 0.09707656064866789 0.01668016234486827
-0.9987542294276855 0.04691054092153733 0.01701147703047211
-0.9998460642987256 -0.003804660380680649 0.01712811331512049
-0.9983824694149096 -0.05420530317828044 0.01715313010319141
-0.9944598131938412 -0.10370049161962 0.01720139472016014
-0.9879904368381032 -0.153558390039714 0.01716734006375042
-0.9766617269364749 -0.2141715198159483 0.01619972954060593
-0.9643817600496122 -0.264106683047522 0.01467926610042954
-0.9517957659409897 -0.3064198074932529 0.01384635376559062
-0.9415434228534815 -0.3365943289645282 0.0141506392176591
0 0 0
0 0 0
0 0 0
0 0 0
0 0 0
0 0 0
0 0 0
0 0 0
0 0 0
0 0 0
0 0 0
0 0 0
0 0 0
0 0 0
0 0 0
0 0 0
0 0 0
0 0 0
0 0 0
0 0 0
0 0 0
0 0 0
-0.8775507656771502 0.4792788629636862 0.01401517661974616
-0.8926715918915081 0.450455551990037 0.01507397463282343
-0.914593346757512 0.4040597772039276 0.0159595273365171
-0.9321334536490904 0.3617014801294561 0.01729924450312786
-0.9485182533734902 0.3161926434384882 0.01831216133294593
-0.9636665811738795 0.2664412276960039 0.01886246305475637
-0.9770357037204274 0.2122026819696192 0.01926798952743275
-0.9871264489436584 0.1586907881231676 0.01996515867029613
-0.9942621856479482 0.1049639109583694 0.02062240497341587
-0.9984945689126632 0.05066186081580044 0.02102312323596034
-0.9997689262237835 -0.004013821760122034 0.02111831887769621
-0.99805691863159 -0.05868426365148506 0.02094145103133907
-0.9933678173008345 -0.1131340215634601 0.02052005642911416
-0.9856397418135012 -0.1677000769491053 0.01977330394947046
-0.9745801804131985 -0.2232736040786586 0.01850323397417681
-0.9614240118288486 -0.2745458813440683 0.01698318332734005
-0.9467292018349144 -0.3216410345090738 0.01583866512551078
-0.9306627901997032 -0.3655566316099569 0.01533362395797425
-0.9104026364572863 -0.4134486928573634 0.01507374890858241
-0.8962777380459477 -0.4432317972637856 0.01522465689443193
0 0 0
0 0 0
0 0 0
0 0 0
0 0 0
0 0 0
0 0 0
0 0 0
0 0 0
0 0 0
0 0 0
0 0 0
0 0 0
0 0 0
0 0 0
0 0 0
0 0 0
0 0 0
0 0 0
-0.8400363453068337 0.5423419132457309 0.01428942617803383
-0.8613485896512927 0.5077918816911714 0.01503369529648756
-0.8821824209364519 0.4706171260228232 0.01654378689170544
-0.903881703879347 0.4273915126985279 0.01828552064973024
-0.9239349472518092 0.3820149197511085 0.02021915760733211
-0.9424138350004277 0.3337223379809296 0.0220355334023929
-0.9590859148621266 0.2821300441456398 0.0235975868142575
-0.973483411053133 0.2273916307277357 0.02496186450042224
-0.9849136462648652 0.171052625410964 0.02619367750552653
-0.9931617701514608 0.1135453678417068 0.02715046502930873
-0.998092769259021 0.05517308698182927 0.0276903309072539
-0.999608206633626 -0.003674740304425259 0.02774760375961257
-0.9976673950363437 -0.06255784344123919 0.02731821929366676
-0.992292900778839 -0.1210652686357735 0.02641968572985407
-0.983557615552188 -0.1788474088560711 0.0250603518483461
-0.9716218531439649 -0.2353913817560931 0.02327814185119313
-0.9570801485100299 -0.2890397859183663 0.02129768729893734
-0.9403937938700865 -0.3395300472495402 0.01946431260922552
-0.9218436931846397 -0.3871446409286201 0.01797866335279285
-0.9014654923754005 -0.4325231798501135 0.01684235579491027
-0.8816909745038133 -0.4715497396803742 0.01618235106178045
-0.8615117799450356 -0.507486356256847 0.0159703233869752
0 0 0
0 0 0
0 0 0
0 0 0
0 0 0
0 0 0
0 0 0
0 0 0
0 0 0
0 0 0
0 0 0
0 0 0
0 0 0
0 0 0
0 0 0
0 0 0
-0.7662154986773299 0.6424050142357982 0.01515279747616916
-0.7867353856418596 0.6170864839217149 0.01586519272145796
-0.8179426404314307 0.5750742296339673 0.01610799102798045
-0.843863841858946 0.536269904762827 0.01756148196272815
-0.868134055355824 0.4959337309170599 0.0198241385723475
-0.8917258534968783 0.4520152724681347 0.02252100488035472
-0.9140176461902694 0.4048767366832209 0.02542775148424808
-0.9346604942518003 0.3544128412040181 0.02830721594708986
-0.953253309221178 0.3005795293123876 0.03098507733112536
-0.9693011354905117 0.2436029442762198 0.03336036985347897
-0.9822578411766688 0.1841756631212933 0.03533919298429599
-0.9917378291320514 0.1228954060834169 0.03678039466940276
-0.9974708702308854 0.06034507572099082 0.03755442553238057
-0.9992892607438231 -0.002858323098549329 0.03758727645264157
-0.9971336548208829 -0.06607026843111036 0.03686724905642805
-0.9910580912744891 -0.1286404572705198 0.0354329292127719
-0.9812328061907336 -0.1899183749489118 0.03336451575884382
-0.967960842473185 -0.2492051844645882 0.03079908236573968
-0.9517223631971492 -0.3056840657159204 0.02796060367405825
-0.932998377236291 -0.3590031602016528 0.02511491667661566
-0.9122206650749316 -0.4090827597677819 0.02246672808897174
-0.8898051957280606 -0.4558964963930139 0.02012705224124544
-0.8664442219791243 -0.4989437343809122 0.01815379081676825
-0.8413759436267019 -0.5402004872432734 0.01643030944341199
-0.8113065948541438 -0.5844400769709691 0.01453979285758117
-0.7913780981449745 -0.6111728401887707 0.01372826252785942
0 0 0
0 0 0
0 0 0
0 0 0
0 0 0
0 0 0
0 0 0
0 0 0
0 0 0
0 0 0
0 0 0
0 0 0
0 0 0
-0.7191163235743442 0.6947478521924355 0.01404047872816719
-0.7442739107306775 0.6677013951499819 0.01520502286847647
-0.769775638292305 0.6380927063358811 0.01682750167508117
-0.7979118712107285 0.6024818356516426 0.01876921657448996
-0.8252054690469697 0.5644232893495813 0.02150079753796861
-0.8517305228160176 0.5233847530608068 0.0249703177198657
-0.8775206873538896 0.4786641036376365 0.02895028764510406
-0.902161046861255 0.430120182720061 0.03319749904834746
-0.9251746966754584 0.3776884617170204 0.03745939825068674
-0.9460280440298423 0.3214168888374524 0.04149847562408689
-0.964134670999783 0.2615536379969434 0.04510022867684299
-0.9788993135209022 0.1986110983931169 0.04806002063446657
-0.989812965307775 0.1332375393208552 0.05018019354637963
-0.9964877729799986 0.06618411492856105 0.05130088919780208
-0.9986802381501758 -0.00171963931306992 0.05133054421044463
-0.9963080273287956 -0.06960113984874586 0.05025928781786115
-0.9894571409170881 -0.1365848360274416 0.04815754204211121
-0.9783783829441325 -0.2018304253538457 0.04516878556159747
-0.963474427621458 -0.2645647641551877 0.04150316719255574
-0.9452724719771066 -0.3241284808519916 0.03742568132805846
-0.9243400424679711 -0.3801211262832327 0.03321769473451489
-0.9012378141959227 -0.4323450320698398 0.02912345288395709
-0.8765090600945177 -0.4807189358307 0.02532138041308055
-0.8506673442516127 -0.5252470899840707 0.02192176742813254
-0.8238305070642258 -0.5665190062512566 0.01896078021571442
-0.7960817248620043 -0.6049639942415218 0.01650615073478399
-0.7708465294759939 -0.6368432411773424 0.01504374160747785
-0.7461972702640256 -0.6655626841358361 0.01469514669601646
0 0 0
0 0 0
0 0 0
0 0 0
0 0 0
0 0 0
0 0 0
0 0 0
0 0 0
0 0 0
0 0 0
-0.6656758744169737 0.7461214119997397 0.01335922058771809
-0.6925652143051967 0.7212100072001818 0.01447582290269389
-0.7193545211642653 0.6944473477849448 0.01649102892440876
-0.7468022426927282 0.6647668795929381 0.01927189937132733
-0.7753615724594256 0.6311069069007204 0.02277068324516786
-0.804099334167427 0.5938775096349476 0.02708808485834309
-0.8326766009028096 0.552824017404946 0.03217583082374961
-0.8607914329300906 0.5075482414251931 0.03785355492360503
-0.887966371254635 0.4578113545763531 0.04386897698647423
-0.9136151555972541 0.4035031360574594 0.04992561121108047
-0.9370706027982151 0.3446675974544936 0.05570397325448504
-0.9576112297884047 0.2815575039146851 0.06087778389913957
-0.974511529402845 0.214675519725462 0.06512833708555475
-0.9871173353167629 0.1447500006525629 0.06816746752092051
-0.9949103833991768 0.07269895912814146 0.06977241823376376
-0.9975596142726127 -0.0004225889503300749 0.06981860347253128
-0.9949544636083147 -0.07349109095366542 0.06829842528440787
-0.9872155148192632 -0.1453907136831734 0.06532279598144836
-0.9746808697888835 -0.2150883835050299 0.0611080137852481
-0.9578699801313331 -0.2816992473117232 0.05595207973978795
-0.9374283371173551 -0.3445401043233145 0.05020188524616884
-0.9140558934261921 -0.4031714275648158 0.04421112629410524
-0.8884522435887801 -0.4573683782091291 0.03829853099550066
-0.8612817467585743 -0.5070729897229734 0.03272209947273644
-0.8331372086337907 -0.5523735348958769 0.02767434798741318
-0.8044672591016681 -0.5935398952889408 0.02329853501493246
-0.7757628358478103 -0.6307155820861663 0.01974530402580732
-0.7480817621944048 -0.6633828734466922 0.01722905365141793
-0.7212014253293527 -0.6925449643460267 0.01581064394230218
-0.694653894378006 -0.7191802589921172 0.01535324400577128
0 0 0
0 0 0
0 0 0
0 0 0
0 0 0
0 0 0
0 0 0
0 0 0
0 0 0
-0.6114740334718451 0.7911677417190455 0.01237379702668913
-0.6370538324050653 0.7706977314857139 0.01369018994728782
-0.6635000855007652 0.7480081406192181 0.01585743068270698
-0.6910206133192194 0.7225847924501381 0.01901919261482543
-0.719648327573401 0.6939512592235719 0.02319341378118447
-0.74934044071892 0.6615766083535604 0.02837772335078617
-0.7797001096213529 0.6251980283444636 0.0345711499757357
-0.8103721993050362 0.5844304084777859 0.04168928207592685
-0.8409457575114196 0.5388468354240391 0.04954110290498924
-0.8708668981396535 0.48810384930154 0.05784010737919986
-0.8994419566977642 0.4319942691762748 0.06622022297268959
-0.9258592341360741 0.3705007988915294 0.07425521251535283
-0.9492265593246381 0.3038574137793158 0.08148380921418905
-0.9686339606980562 0.2325979980189558 0.08744381910672493
-0.9832401478034848 0.1575649800853477 0.0917174399887199
-0.9923641785868412 0.07987777839102977 0.09398338989936778
-0.9955658433382067 0.0008605472032748368 0.0940633352417142
-0.9926990883498957 -0.07806256154088011 0.09194974972756259
-0.9839274859578884 -0.1554877698662424 0.0878080622642983
-0.9696989120688151 -0.2301470552521104 0.0819533580235596
-0.950685611398029 -0.3009994650551229 0.0748076888914838
-0.9277028206445658 -0.3672859866224382 0.0668466947492382
-0.9016225364834138 -0.4285432251582987 0.05854490478374694
-0.8733025463652833 -0.4845714998261522 0.05033015068668971
-0.8435361236620068 -0.5353837864512407 0.04255595472324424
-0.813016493017972 -0.5811577248625308 0.03549480121601058
-0.7823200646000461 -0.6221847508223964 0.02935050882440337
-0.7519775199696871 -0.6587412804409822 0.02428445805887842
-0.7225649548583033 -0.6910011266188414 0.02042863240917515
-0.6943399084568252 -0.7194260206442652 0.01784074953930041
-0.6675093725591935 -0.744418247082929 0.01651396244426698
-0.6421286556107612 -0.7664205817120042 0.01644024244799783
0 0 0
0 0 0
0 0 0
0 0 0
0 0 0
0 0 0
0 0 0
0 0 0
-0.5848341080123193 0.8110458941048343 0.01317663694286848
-0.6052889278339735 0.7958621395164608 0.01512510250807333
-0.6309508124157399 0.775606427246868 0.01832327277715568
-0.6588761020051359 0.7519059496004108 0.02279748148418198
-0.6884065696926689 0.7247613953860714 0.02858871389214
-0.71931172058086 0.6937690247786542 0.03570978707129288
-0.7513249067690548 0.6584551941833147 0.04413209400746419
-0.7841202612327491 0.618277361121098 0.05374495929309013
-0.8172548049684726 0.5726749526536891 0.06432715102534867
-0.8501155620643067 0.5211505141269209 0.07553590378974358
-0.8819047858519787 0.4633474010666914 0.0869087718019164
-0.9116535333723235 0.3991334792234373 0.09787901129839388
-0.9382648959119839 0.3286888690335489 0.1078082208030532
-0.9605928680268785 0.2525790518528381 0.1160394952635379
-0.9775544811891488 0.1717866245669734 0.1219696352659114
-0.9882581187342052 0.08768282663330888 0.1251303826795153
-0.9921219886038671 0.001931863035918438 0.1252606388053245
-0.9889546619802637 -0.0836606350575186 0.1223502132784173
-0.9789772992587135 -0.1673259978871155 0.1166424363908603
-0.9627828406346882 -0.2475001557282113 0.1085950030798419
-0.9412447827958235 -0.3229470679193326 0.09881017246188835
-0.9154000801470757 -0.3928194438381529 0.08795213362625601
-0.8863332532910162 -0.456656488350824 0.07666952300397134
-0.855082973160338 -0.5143326319965543 0.06553665138510845
-0.8225790642368158 -0.5659827493020907 0.05502009243658413
-0.7896085155606962 -0.6119238994184047 0.04547013827345199
-0.7568118767425548 -0.6525772279883904 0.03713145206425509
-0.7247215637538448 -0.6883812928422979 0.03016373144933781
-0.6938140851251885 -0.7197318503703443 0.02465925474091506
-0.6645396965046674 -0.7469675532019504 0.02065105888266355
-0.6377849834045504 -0.7700007274682426 0.01814372183522178
-0.6167168413456369 -0.7869983431612976 0.01714483776628627
0 0 0
0 0 0
0 0 0
0 0 0
0 0 0
0 0 0
0 0 0
-0.5081809755128662 0.8611265008803169 0.01460293150065128
-0.5407698409498224 0.8410359439538381 0.01505058459926674
-0.5669954448311471 0.8235341062921485 0.01754255723437271
-0.593922782939352 0.8042262705083794 0.02181361340442983
-0.622465652337706 0.7821542986512421 0.0277698534597716
-0.6527449364639148 0.7567489762002849 0.03542647231294337
-0.6847299900844722 0.727418326443981 0.0448042300721256
-0.7182781992614772 0.6935086917922291 0.0558759597172172
-0.7531234913349463 0.6543010399924151 0.06852120740547826
-0.7888324478651449 0.6090477305093566 0.08248776367731889
-0.8247559988148672 0.5570438306066513 0.09736381875192865
-0.8600006189244924 0.4977229336343426 0.1125647226439668
-0.8934300152045098 0.4307749205448831 0.1273411785763672
-0.9237089864754192 0.3562753521559103 0.1408175477372597
-0.9493998699710016 0.2748010943857681 0.152066582204733
-0.9691108056856945 0.1874949274419417 0.1602182838716119
-0.981675541599449 0.09604344539149759 0.1645867176377185
-0.9863261334782758 0.002550272780678888 0.1647854803268116
-0.9828126302368879 -0.09068144236857767 0.1607986624844988
-0.9714350121843583 -0.1814104076885307 0.1529845779307703
-0.9529796523036479 -0.2676988370257707 0.1420109677111858
-0.92858274157293 -0.3480797420318689 0.128742321091116
-0.8995618691816684 -0.4216241942534871 0.1141117098920186
-0.8672574763292138 -0.4879159531563991 0.09900753711998349
-0.8329121852272711 -0.5469631063334325 0.08419413287167678
-0.7975973048405129 -0.5990830189368948 0.07027144322272777
-0.7621826488586124 -0.6447882995019508 0.05766852351370477
-0.7273418593446641 -0.684687270200331 0.04666006505209021
-0.6935843688308331 -0.7194042238778684 0.03739366230012562
-0.6612918076966835 -0.7495319611876506 0.02991628705982626
-0.6307309113410301 -0.7756244454923071 0.02419167281656922
-0.6020220697853439 -0.7982264156436781 0.02010017064643396
-0.5745311076222094 -0.818298302469141 0.01737511296420479
-0.5416823604771227 -0.8404400854268874 0.01551396646826085
0 0 0
0 0 0
0 0 0
0 0 0
0 0 0
-0.444164937115181 0.8958378047166188 0.0138613230961437
-0.4723808125625147 0.8812701038782493 0.01481120971417844
-0.4996793296182869 0.8660484696011338 0.01675159257361703
-0.5258959254795048 0.8503028466408711 0.02045836157872393
-0.5529335921982865 0.8328159341125559 0.02611632644399373
-0.5816197362222242 0.8127579958770789 0.03380713792475955
-0.6122742911232768 0.7894413881004263 0.04361751005685883
-0.6450115229418188 0.7621462284816228 0.05561709884120728
-0.6798038484217266 0.730063585808875 0.0698132390517516
-0.7164676036933263 0.6922867463562264 0.08610013749960957
-0.7546136894989385 0.6478418681516883 0.1042069742892929
-0.7935871237496479 0.5957600323435834 0.1236505595649799
-0.8324171231779559 0.5351929688699356 0.1437018410192404
-0.8697986982936878 0.4655717452914285 0.1633804591525522
-0.9041291221314017 0.3867947589741284 0.1814947518360951
-0.9336201799747256 0.2994096260283506 0.1967415446354013
-0.9564915940633112 0.2047324752782627 0.2078664091493883
-0.9712215803569826 0.104842902308024 0.213861187887177
-0.9767976805919083 0.002417014347365039 0.2141505293757457
-0.9728942491951159 -0.09958582462935514 0.2087089921780141
-0.9599185440932019 -0.198307425390616 0.1980670435507434
-0.9389127770551066 -0.2913403992963214 0.1832036266576818
-0.911350744300446 -0.3769545044863978 0.1653636066685669
-0.8788967893814391 -0.4541649900103872 0.1458581347195373
-0.8431910079260506 -0.5226648170517597 0.1258984240127753
-0.8056982446239275 -0.5826751546902863 0.106489448850917
-0.7676286080485267 -0.6347710914810899 0.08838541466433551
-0.7299175625405537 -0.6797226760756282 0.07209324187080585
-0.6932466451523035 -0.7183704480050567 0.0579049947594316
-0.6580850996539563 -0.7515406582166841 0.04594170937911266
-0.6247304887980094 -0.780001093549948 0.03619544760166616
-0.593323028919699 -0.8044576010731596 0.0285613625230121
-0.5637896532577796 -0.8256021008079582 0.02285602810984176
-0.5355586628533255 -0.8442880883470695 0.01882929945612013
-0.5069937628993295 -0.8617966955593535 0.01624130241565177
-0.4783844601730906 -0.878019174691298 0.01518674222181284
0 0 0
0 0 0
0 0 0
0 0 0
-0.4144853520760751 0.9099526274320433 0.01371527410925821
-0.4335039298814694 0.9010189942194149 0.01546333835740677
-0.4568098380280181 0.8893678361104475 0.01869823448979368
-0.4815626317598223 0.8760882529431532 0.02380766153083523
-0.5078413778319164 0.860889596419132 0.0310843648653789
-0.5360657086386608 0.8431920323765402 0.04075233193879226
-0.5665622864354497 0.822312232174207 0.05300724861476994
-0.5995411262484851 0.7974494062035435 0.06800648853097045
-0.6350880919174969 0.7676565143465213 0.08582884996282725
-0.6731263459187616 0.7318308824957275 0.1064165487862653
-0.7133494124460664 0.6887386324102045 0.1295056446205041
-0.7551378054584087 0.6370874815336106 0.154552371837572
-0.7974781662738333 0.5756624234298285 0.1806691688346981
-0.8389125152477629 0.5035324658115878 0.2065934356032962
-0.8775544377037844 0.4203170755051435 0.2307201007827402
-0.9112101575802062 0.3264666420016156 0.2512281440898768
-0.9376237385599427 0.223471847661305 0.2663119565316545
-0.9548214126634288 0.1138973753851387 0.2744876277718
-0.9614733863331718 0.001165623356337876 0.2748955596134902
-0.9571563215299251 -0.1108960170038604 0.2674955131735507
-0.9424201314892751 -0.2186240297238693 0.2530767262927062
-0.9186383223884789 -0.3190265291581594 0.2330787556440491
-0.8877075574524987 -0.4100866853433237 0.2092945363497187
-0.8517067910884351 -0.4908170897650787 0.1835595990635701
-0.8126123482959271 -0.5611163816553685 0.1575105635662728
-0.7721169181713285 -0.6215247177193137 0.1324480650577297
-0.7315528308959264 -0.6729671110886827 0.1092964912570766
-0.6918930773210292 -0.7165392712291095 0.08863093332291989
-0.6537972448965852 -0.7533559443734938 0.07073884111826566
-0.617674262196611 -0.784459690079658 0.05569111652677039
-0.5837406206352437 -0.8107790706128156 0.04340721687229936
-0.5520593082139496 -0.8331232270423298 0.03370769610800333
-0.5225540251562559 -0.8521987277314669 0.0263556302497857
-0.4950417024530622 -0.8686129986480901 0.02109908557133352
-0.4696655263247548 -0.8826661518900825 0.01774141171508323
-0.4494543904528388 -0.8931558866239373 0.01622692489890838
0 0 0
0 0 0
0 0 0
-0.337910022702379 0.9410913006957238 0.01280547976875134
-0.3667746011441219 0.9302048041211117 0.01397906812250166
-0.3883057297648869 0.9213812606164794 0.01659014214964276
-0.4101953707206868 0.9117556351679968 0.0210099875944851
-0.4334091156832388 0.9007758245960338 0.02755816151355635
-0.4583780051270573 0.8880042519229849 0.03657940653480905
-0.4855149290015628 0.8728871291704841 0.04840778289817914
-0.5151927365499855 0.8547292750902737 0.06335858670923568
-0.5477185276097335 0.8326634503560156 0.08170674974712856
-0.5833024579929954 0.8056157576348417 0.1036411769026618
-0.622002010944437 0.7722838022021432 0.1291945325363143
-0.6636363242052864 0.7311466110248245 0.1581501260897671
-0.7076750087391264 0.6805305874984058 0.1899320970377348
-0.7531174017825875 0.6187600176575574 0.2234954578524211
-0.7983948237326309 0.5444158874598815 0.257248997895444
-0.8413478099224568 0.4567022932434079 0.2890620661465234
-0.8793411033376216 0.3558676637193851 0.3164133845144361
-0.9095611966094627 0.243557459226014 0.3367167855598086
-0.9294784855817582 0.1229251875666278 0.3477918099989559
-0.9373616133883362 -0.001639801409822834 0.3483540107381443
-0.932662206291202 -0.1251667250936963 0.3383408043457746
-0.9161117971281399 -0.2429478541426281 0.3189286994457244
-0.8894967943457908 -0.3512761368177836 0.2922336882546831
-0.8552214773390309 -0.4478445517038049 0.2608284535997994
-0.8158356560163825 -0.5317557497103855 0.2272619744309722
-0.7736682863863404 -0.603250819603311 0.1937158519273943
-0.7306228532048046 -0.6633238569627095 0.1618385218635696
-0.6881177730082352 -0.713356472579023 0.1327270639312123
-0.6471221679216207 -0.7548404952177737 0.1069987222531533
-0.6082370048358761 -0.7892020537900519 0.08489914158485587
-0.571785499881922 -0.8177106866999563 0.0664121598915874
-0.5378918672804434 -0.8414482408401202 0.05135364739358552
-0.5065394699898857 -0.8613140474137936 0.03944460761668377
-0.4776101540215303 -0.8780469346305659 0.03036645124798095
-0.4509206711045318 -0.8922465562844101 0.02380401582189921
-0.4262559362667686 -0.9043930036942044 0.01947233078792692
-0.4028745644560768 -0.9150957760886848 0.01708232709478488
-0.3733874211302765 -0.9275327310419983 0.01627472234641304
0 0 0
0 0 0
-0.3078322629447776 0.9513583733319575 0.01251172975524345
-0.3230210191878236 0.9462808832501093 0.01448831109038717
-0.3408826521948649 0.9399322229416718 0.01806747653994479
-0.3603337177525803 0.9325240561382439 0.0236325321131778
-0.3814304155088932 0.9238571378196111 0.0316042247882882
-0.4044548119476291 0.9135739003067884 0.04241501822055023
-0.4297902466606945 0.9011587475261867 0.05650889870076247
-0.4578508871831441 0.8859161436081843 0.07433136350162124
-0.4890363263729474 0.8669310628845064 0.09630162871722953
-0.5236863133476627 0.8430200714156352 0.1227591316469385
-0.5620139807205322 0.8126880333943343 0.1538780226423201
-0.6040049050802191 0.774112835970427 0.1895452236930744
-0.6492785510072272 0.7251917685860308 0.2292035383169712
-0.6969226632775694 0.663694975173501 0.2716758755199744
-0.745334715006197 0.587573759594426 0.3150130785264356
-0.7921372339519994 0.495446228519582 0.356443035045709
-0.8342617676255039 0.3872100497352464 0.3925247514009745
-0.8682875616482465 0.2646131650865439 0.4195909712444051
-0.8910395398537463 0.1315052469573636 0.4344593288673936
-0.9003007794323479 -0.006489683796050541 0.4352199335482387
-0.8953656288409227 -0.1429140222585353 0.4217771602780135
-0.8771797193231295 -0.2717272671364889 0.3958788101208879
-0.8480111355725419 -0.3883714501635337 0.3606171524523492
-0.8108316818486185 -0.4902813552811688 0.3196500842705979
-0.7686826571675862 -0.5767941320656051 0.2764697122370979
-0.7242234956190066 -0.6486737855104313 0.2339287250103184
-0.6795187009886522 -0.7075274057533716 0.1940600554328429
-0.6360148083656288 -0.7553050110555775 0.1581123139226215
-0.5946254017426362 -0.793957626630783 0.1266961669397396
-0.5558548086228164 -0.8252474615665868 0.09996028665823288
-0.5199182314246844 -0.8506701951150585 0.07775121719391931
-0.4868396248704156 -0.8714461196156379 0.05973977119875408
-0.4565246410817735 -0.8885458899036281 0.04551322467730376
-0.428817366362578 -0.9027268280818038 0.03464015252892842
-0.4035604933203042 -0.9145628331855469 0.02671614468252501
-0.3806838800883566 -0.9244577037121181 0.02139480049428971
-0.3603501247682362 -0.9326356521945047 0.01839912593703423
-0.3438637424334537 -0.9388573086194798 0.0174551050253316
0 0 0
0 0 0
-0.2656663927584964 0.9639724648566999 0.0133586959238717
-0.2761020831271113 0.9610010520703437 0.01564025615396668
-0.290597416608781 0.9566385199805945 0.01989682260160114
-0.3072494270246909 0.9512611253187986 0.02645866682603706
-0.3257050050074221 0.9447944633139024 0.0357725006745355
-0.3461265605488039 0.9369416428765932 0.04834006543608591
-0.3688756591474915 0.9272233712390727 0.06471142029465718
-0.3943998068534544 0.9149554256635486 0.08547140693115764
-0.423177157846316 0.8991962854994535 0.11120761314361
-0.4556680554826484 0.8786777730984621 0.1424499711315829
-0.4922460651323651 0.851732577559794 0.1795701191319201
-0.5330898658303623 0.8162425441901688 0.2226281743241992
-0.5780244724352376 0.7696493809798338 0.2711596201932047
-0.6263136957022898 0.7090922830958571 0.3239124706300202
-0.6764339170381797 0.6317531567323932 0.3785830223861611
-0.7259060096602986 0.5354724256798085 0.4316592944390792
-0.7713149676547451 0.4196064474456923 0.4785432581635275
-0.8086606408591902 0.2859113222909346 0.5141232184127192
-0.8340904297392482 0.1390284798412459 0.533820416254781
-0.8448453279809801 -0.01388261289124487 0.5348304823474643
-0.8400279186557003 -0.1644790786578245 0.5170103756820018
-0.8208019157334269 -0.3050670099743028 0.4829268418235567
-0.7899340219883817 -0.4301188035362818 0.4370378195874765
-0.7509552590192334 -0.5368963439365415 0.3844587296692979
-0.7073480034228392 -0.6251721186187434 0.3298766802237985
-0.6620209299003825 -0.6964480626472456 0.2769266769539013
-0.6171114138567718 -0.7531105196990105 0.228030804950519
-0.5740191656630375 -0.7977772979311398 0.1845355801930861
-0.5335501227398829 -0.832900693761172 0.1469717689095884
-0.4960834272788703 -0.8605825892225838 0.1153205979268343
-0.4617171302956291 -0.8825274789889648 0.0892330679790327
-0.4303791234612779 -0.9000688505406413 0.06818998735261834
-0.4019073052616638 -0.9142247699573819 0.05160996002400144
-0.3761135505625575 -0.9257558648863804 0.03891883492212495
-0.3528574754857303 -0.9352089572536751 0.02959405795645949
-0.3321822191607412 -0.9429299865339529 0.02319512380919605
-0.3146613758916832 -0.9490060272637814 0.01938501325682587
-0.3024820918934542 -0.9529871851955571 0.01788879360963651
0 0 0
0 0 0
-0.2159122092445551 0.9762991040673402 0.01489890252481217
-0.2250246734988655 0.9742017168690549 0.01717297778820368
-0.2371670727397706 0.9712224467637467 0.02188009392778603
-0.2510185094448776 0.967539127455901 0.02928727979763775
-0.2664250778656927 0.9630325757489264 0.03982381110148838
-0.2836113702007807 0.9574152452126746 0.0540429359601138
-0.3029632126752147 0.9502330773110701 0.07259745553010541
-0.3249569813978379 0.9408214568563322 0.0962182236353027
-0.3501251254162286 0.9282333054780524 0.12567946194012
-0.3790201506920324 0.9111451918459046 0.1617348594010515
-0.4121548934152069 0.8877505786481343 0.2050054973501958
-0.4498993778236759 0.8556624718775279 0.2557973495842122
-0.4923161762159618 0.8118724167484528 0.31382791711242
-0.5389255302211762 0.7528491530182853 0.3778590023745281
-0.5884194727160338 0.674897563352741 0.445281712075757
-0.6384016690806088 0.5749005440726513 0.5117935846999858
-0.6853102668623218 0.4514643498460913 0.5714278422960668
-0.7247321758998641 0.3062190250072614 0.617246451540266
-0.7522321544388031 0.1446592048644161 0.6428222929211083
-0.7645292452692393 -0.02422683896900541 0.6441335990317665
-0.7605041428968063 -0.1898066190799572 0.620972540447828
-0.7414761806409609 -0.3424285773538653 0.5770231736711279
-0.7106122265324067 -0.4755289526734819 0.5185580764696622
-0.6718639821402095 -0.5863455636279028 0.4525457651073276
-0.6289927481493528 -0.6753277183824415 0.3850981635374154
-0.5850016295317303 -0.7449339236811651 0.3206969641175355
-0.5419796637439155 -0.7984709214199029 0.2621111057068798
-0.5012027880881392 -0.8392866215346937 0.2106982015242537
-0.4633333540385051 -0.8703411372082129 0.166818787666568
-0.4286200629095216 -0.8940524341536672 0.1302116993796628
-0.3970576532855944 -0.9122991240196029 0.1002772570446621
-0.3685002143519443 -0.9264937931888048 0.07626823195270011
-0.3427377377572339 -0.9376753873957498 0.05740828328110133
-0.3195516713890093 -0.9465945146692739 0.04295991283198562
-0.2987707813418306 -0.9537794990991427 0.0322596855933197
-0.2803671414169464 -0.9595741433307439 0.02473316527980624
-0.2647110083484813 -0.9641224165114732 0.01990095573601697
-0.2534444763165125 -0.9671931264198865 0.01741705000203043
0 0 0
-0.1258039175648992 0.9919347754385613 0.01545236554622869
-0.1555134526381247 0.9877058964764114 0.0158942792946919
-0.1696576677321939 0.9853301071271848 0.0184622796101203
-0.1808472143867605 0.9832262339335374 0.02367399318707004
-0.1919852607935458 0.9808806637366233 0.03185566112380629
-0.2039822169100291 0.9780084989557167 0.04348138860311226
-0.2173380796194163 0.9743009245716522 0.05917657920298265
-0.2325034441264252 0.9693243700225963 0.07970203353520074