# OOMMF: rectangular mesh v1.0
# Segment count: 1
# Begin: Segment
# Begin: Header
# Title: 
# Desc: time = 1.8799999999999997e-09
# Desc: stepsize = 2.95930030354586e-14
# Desc: step = 12030
# meshunit: m
# valueunit: (none)
# valuemultiplier: 384000.0000000001
# xmin: 0
# ymin: 0
# zmin: 0
# xmax: 9.357999999999999e-08
# ymax: 9.357999999999999e-08
# zmax: 2.3395e-08
# ValueRangeMaxMag: 1
# ValueRangeMinMag: 0
# meshtype: rectangular
# xbase: 1.16975e-09
# ybase: 1.16975e-09
# zbase: 1.16975e-09
# xstepsize: 2.3395e-09
# ystepsize: 2.3395e-09
# zstepsize: 2.3395e-09
# xnodes: 40
# ynodes: 40
# znodes: 10
# End: Header
# Begin: Data Text
0 0 0
0 0 0
0 0 0
0 0 0
0 0 0
0 0 0
0 0 0
0 0 0
0 0 0
0 0 0
0 0 0
0 0 0
0 0 0
0 0 0
0 0 0
0 0 0
-0.9835678213363658 0.1797924139521489 0.01640209489343655
-0.988770512022629 0.1484049136341771 0.0175743040755485
-0.9941962777732646 0.105986404407528 0.01845652574427398
-0.9980624565692893 0.0592501757306108 0.01899340577059639
-0.9997496957745196 0.01125643497196977 0.01933490290838328
-0.9991681272530927 -0.03570706095184083 0.01969922028224402
-0.9967090503368453 -0.07846922378700023 0.02033838476597518
-0.9936945010210029 -0.1100630350026939 0.02138613959122569
0 0 0
0 0 0
0 0 0
0 0 0
0 0 0
0 0 0
0 0 0
0 0 0
0 0 0
0 0 0
0 0 0
0 0 0
0 0 0
0 0 0
0 0 0
0 0 0
0 0 0
0 0 0
0 0 0
0 0 0
0 0 0
0 0 0
0 0 0
0 0 0
0 0 0
0 0 0
0 0 0
0 0 0
-0.9208220134242573 0.3896134642536466 0.01697551370559326
-0.9326539068084276 0.3603065195808322 0.01832763112143949
-0.9474856497295723 0.3192314388350515 0.01903239385449104
-0.9625270701546975 0.2705255297326636 0.01890970603354502
-0.9773413770947162 0.2108606347414354 0.01848310945273451
-0.986663883519279 0.1616271602181409 0.01926245151773576
-0.9934531069995267 0.1124569791872454 0.02010850628629192
-0.997856181372744 0.06207641841583623 0.02072581899145847
-0.9997156054707353 0.01106008237982068 0.02112777215022695
-0.9989811540828357 -0.03971722682916274 0.02142885158672604
-0.9957353536746648 -0.08965789967199146 0.02173859399308772
-0.9898996386559185 -0.1400593284796249 0.02195654560075365
-0.9792614339289574 -0.2014802914471452 0.02127759802645155
-0.9674901787180127 -0.2521168026322018 0.01999679761117458
-0.955297093011426 -0.2950132282407585 0.01935611652383456
-0.9453096709239477 -0.3255728814304391 0.0197970940983395
0 0 0
0 0 0
0 0 0
0 0 0
0 0 0
0 0 0
0 0 0
0 0 0
0 0 0
0 0 0
0 0 0
0 0 0
0 0 0
0 0 0
0 0 0
0 0 0
0 0 0
0 0 0
0 0 0
0 0 0
0 0 0
0 0 0
-0.8696848490026694 0.4933768936517461 0.01508324321082334
-0.8852589672214174 0.4648129870058141 0.0162925769846764
-0.907873866985587 0.4188793644131373 0.01746767624734611
-0.926062646564903 0.3768887322243255 0.01904883617303598
-0.9431706207491302 0.3316859701869755 0.02033709263451248
-0.9591236635630827 0.2821915047602201 0.02120737217319833
-0.9733779729036608 0.2281505299766598 0.02196946829872639
-0.9843502348331685 0.1747146171600928 0.02300907939243789
-0.9923716711557797 0.120922447925017 0.02400474693275837
-0.9974851454867455 0.06641736235548587 0.02474102889989074
-0.9996182561844879 0.01140930035206904 0.02516286486391033
-0.9987237706483468 -0.04371415183761013 0.02529630152939222
-0.9947957556768435 -0.09873284127749685 0.02516407241702992
-0.9877642074125146 -0.1539885485411668 0.02468597725250289
-0.9773349627943011 -0.2103713356029727 0.02367005822728034
-0.9646889423972433 -0.2624401677533983 0.02236968408483833
-0.9504020914832447 -0.3102861436903079 0.02140965992422245
-0.9346565209694755 -0.3549274835163622 0.02106345778779117
-0.9146704413798821 -0.4036560731794339 0.02097041371291578
-0.9007049418253366 -0.4339118099674657 0.0212402669986665
0 0 0
0 0 0
0 0 0
0 0 0
0 0 0
0 0 0
0 0 0
0 0 0
0 0 0
0 0 0
0 0 0
0 0 0
0 0 0
0 0 0
0 0 0
0 0 0
0 0 0
0 0 0
0 0 0
-0.8312558420417325 0.5556912840051085 0.01486344348539932
-0.8530170246771648 0.5216432506720158 0.01582007077255982
-0.8743353755034358 0.4850053791295774 0.01753377764887813
-0.896625244394666 0.4423592325407597 0.01953152580202329
-0.9173346822307797 0.3975226153072444 0.02174513959123136
-0.9365564444095867 0.3497023912604325 0.02388020061907477
-0.9540600391088588 0.2985023539348793 0.02580283842793385
-0.9693697472599231 0.2440546950623221 0.02756082210800342
-0.9817608949721736 0.1878643128553938 0.02919837424937857
-0.9909985711952736 0.1303368294973367 0.03056374920568457
-0.9969237076455997 0.07176701101425308 0.03150582905162849
-0.9994107709635345 0.01254755174733613 0.0319479236762059
-0.9983922268098758 -0.04687138821710805 0.03187529470009488
-0.9938665590633333 -0.1060647429769594 0.0312974930759776
-0.9858868393831963 -0.1646631409943086 0.03021903256061054
-0.9745980546598533 -0.2221176521944748 0.02867717623552237
-0.9605792791082671 -0.2767023467147969 0.0268934912267909
-0.9442998733898824 -0.3281186241250436 0.0252174070463134
-0.9260518631595699 -0.3766412587683673 0.0238601955580532
-0.9058856037953507 -0.4229061968247438 0.02283903508389211
-0.8862394271064722 -0.462691324138315 0.02228040415081902
-0.8661310947519734 -0.4993248836812686 0.02217176674139696
0 0 0
0 0 0
0 0 0
0 0 0
0 0 0
0 0 0
0 0 0
0 0 0
0 0 0
0 0 0
0 0 0
0 0 0
0 0 0
0 0 0
0 0 0
0 0 0
-0.7561254490131116 0.654255256540513 0.01497880648874336
-0.776946090484234 0.629368270778333 0.01582252251553359
-0.8086203028887868 0.5881038428240284 0.01634245427273471
-0.8349420977574519 0.5500427159969171 0.01801954414295663
-0.859657027275744 0.5104595590326793 0.02051424011736342
-0.8837876565481697 0.467298409864021 0.02348561840044358
-0.9067223197779318 0.4208812398257954 0.02671360663082508
-0.9281224457800327 0.3710670401968449 0.02996626968513989
-0.9475873523045202 0.3177808970644879 0.03306828107715704
-0.9646124966114311 0.2612149239187592 0.03590953777449276
-0.9786286014476121 0.2020223849795105 0.03837989572524243
-0.9892209222848625 0.1407698159751593 0.04032153052905256
-0.9960837008291556 0.07802420084985599 0.04158707761112578
-0.9990102600519979 0.01440211483258979 0.0420841941729636
-0.9979027296857278 -0.04943888085736536 0.04178443664025905
-0.9927805471502053 -0.1128237152728601 0.04071356619318673
-0.9837862384293375 -0.1750656111813458 0.03894443296230683
-0.9712045426090765 -0.2354172223377934 0.03661240011596521
-0.955508185694977 -0.2930049362298307 0.03394428397897877
-0.9371847453554852 -0.3474340104715281 0.03121476318416287
-0.9166787049186288 -0.398597242700542 0.02864245206385028
-0.8944225737454521 -0.4464455903326188 0.02635515978172151
-0.8711269557287357 -0.4904499977524062 0.02442594332772876
-0.8460484980493786 -0.5326199531758669 0.02275795305661143
-0.8159025051169636 -0.5778094997436106 0.02095910661027333
-0.7959269876585177 -0.6050551371699212 0.02021166250275422
0 0 0
0 0 0
0 0 0
0 0 0
0 0 0
0 0 0
0 0 0
0 0 0
0 0 0
0 0 0
0 0 0
0 0 0
0 0 0
-0.7084941461573255 0.7055885806382697 0.01344617914775916
-0.7338646676926482 0.6791352279414778 0.01476454134862477
-0.7595763233349438 0.6502081591972217 0.01652751470514345
-0.7879786701753616 0.6154197134076959 0.01865989544068433
-0.8155679046613814 0.5782579994411686 0.02160275372587422
-0.8424632321903736 0.5381584839146643 0.02532091226671155
-0.868736846867793 0.4943882975573283 0.02960577870231925
-0.8939963212994996 0.4467653760836464 0.03422391321574876
-0.9177781792984195 0.395180810269582 0.03892737851890573
-0.9395513968991211 0.3396365347286626 0.04347639431249432
-0.958719776012506 0.2803323944766928 0.04764598293134026
-0.9746639238000753 0.2177325097468139 0.05121318035422101
-0.9868378873847627 0.1524456158485109 0.05395663286887047
-0.9948063718429102 0.08519969963075293 0.0556892603970844
-0.9982726701311985 0.01682128764796424 0.0562913878936294
-0.9971014178413029 -0.05179957935918458 0.05572760641795298
-0.9913316117003498 -0.1197512767873563 0.05404874976707814
-0.9811780914516498 -0.1861422055636278 0.05138708167628809
-0.9670221342688829 -0.2501377955488737 0.04795075674067708
-0.9493852802994924 -0.3110154100030945 0.04401141092103646
-0.9288436671123543 -0.36832086237962 0.0398645757685486
-0.9059756022575665 -0.421815628977923 0.03577405853406226
-0.8813474286836297 -0.471387854419632 0.03194058012010934
-0.8554986967977559 -0.5170202282020097 0.0284967262555259
-0.8285738655363747 -0.5592987564580347 0.02550000734519144
-0.8006849807984932 -0.5986426385356923 0.02303373288766996
-0.7753015279344042 -0.6312226059257358 0.02157689854684037
-0.7504891364696599 -0.6605407467494102 0.02125977245303372
0 0 0
0 0 0
0 0 0
0 0 0
0 0 0
0 0 0
0 0 0
0 0 0
0 0 0
0 0 0
0 0 0
-0.6546184868340597 0.7558588403343516 0.01233086304744049
-0.6816374490266137 0.7315638813459185 0.01358953989599464
-0.708498871153613 0.7055369199001582 0.01571636827810944
-0.7360212707573313 0.6767023912260317 0.01861619460935617
-0.7646948876661687 0.6440075471240994 0.02227123760427908
-0.793607744333517 0.6078396599282526 0.02678984793112165
-0.8224592394151365 0.5679153869588843 0.03213896009542382
-0.8509863384242358 0.5238000009091827 0.03815508960612843
-0.8787424505812219 0.4752080192783821 0.04459869908444268
-0.9051621465386742 0.4219740499754483 0.05117997284892493
-0.9295861357595018 0.3640802532896821 0.05757764642843112
-0.9512847510224415 0.3017134481364122 0.06345327167142338
-0.9695054716753774 0.2353118959874421 0.06846496913238799
-0.9835481581471263 0.165550370403887 0.07229173856347933
-0.9928326899386555 0.09331374491640987 0.07467124479240946
-0.9969569021281308 0.01965098408423515 0.07543721974994141
-0.9957387563591166 -0.05429115895723875 0.07454394102460066
-0.9892361607348418 -0.1273470573942732 0.07207319382134712
-0.9777408971920034 -0.1984139402037 0.06822496823757554
-0.9617468750704541 -0.2665270505920144 0.06329517829137962
-0.9418952480234908 -0.3309241133796404 0.05764176380598313
-0.9188994750425904 -0.3910972828306334 0.05163981147280196
-0.8934847791851366 -0.4467687384708042 0.04563599116589069
-0.8663480451742405 -0.497842891380201 0.03991891938634061
-0.8381175247132956 -0.5443842057810716 0.03471096749687939
-0.8092773148321676 -0.5866509059772408 0.03018181926456024
-0.7803527383393333 -0.6247777605798688 0.02650195560911148
-0.7524334097008452 -0.6582347048711903 0.02389638610954161
-0.7253075367577078 -0.6880593114874535 0.02243570809840928
-0.6985160687477004 -0.7152564521791581 0.02198884529349442
0 0 0
0 0 0
0 0 0
0 0 0
0 0 0
0 0 0
0 0 0
0 0 0
0 0 0
-0.6001195962535447 0.7998353344753115 0.01095024736014014
-0.6257664056375492 0.7799122760251039 0.01237930857534939
-0.652181075599047 0.7579221869649313 0.01462200864331323
-0.6796240848187206 0.7333433050795213 0.01785217716023148
-0.7081732282409494 0.7056923519190286 0.0221129655582694
-0.7378249442269476 0.674434733161632 0.02742521434190471
-0.768219188216413 0.6392936664303788 0.03380661056832614
-0.7990440103001197 0.5998597988572446 0.04119334070511224
-0.8299336443329697 0.5556691834939053 0.0494156303148268
-0.8603752871051361 0.5063264982825326 0.05820517567796378
-0.8897070829406633 0.4515578333995245 0.06720736314379894
-0.9171343252419806 0.3912660523486129 0.0759967482361498
-0.9417611738707107 0.3255968498835877 0.08409864883305079
-0.9626484863030551 0.2549961277452709 0.09102124286864768
-0.9788987060574998 0.1802313480913178 0.09630152877362923
-0.9897510580162034 0.1023736451123258 0.09956143802808784
-0.9946710290373894 0.02273625513018466 0.1005614573102214
-0.9934168633466944 -0.05722610637071892 0.09923763584478201
-0.9860688811619412 -0.1360414549959943 0.09571250768112584
-0.9730152535040927 -0.2123469295178907 0.090277893045248
-0.9548978043908614 -0.2849952100720419 0.08335414450106234
-0.9325301652015582 -0.3531247818680499 0.07543460359673271
-0.9068060623846815 -0.4161854189889469 0.06702583265714107
-0.878620379384673 -0.4739121849203963 0.05859581822885182
-0.8488112050501195 -0.5262748337405907 0.05054045461486206
-0.8181182649743044 -0.5734271287906949 0.04317212621927879
-0.7871619815161938 -0.6156516957589063 0.03672879476217084
-0.7565120039608273 -0.6532256420927912 0.03139822249161955
-0.7267761915857782 -0.6863303830031757 0.02733080150280006
-0.6982326231643144 -0.7154482311924699 0.02459740703094423
-0.6711035674041756 -0.7410005479744829 0.02319891633039534
-0.6454539656112864 -0.7634489955020429 0.02312594957153587
0 0 0
0 0 0
0 0 0
0 0 0
0 0 0
0 0 0
0 0 0
0 0 0
-0.5733997589967039 0.8191949374286114 0.01150525418470511
-0.5937352308510958 0.8045476841890395 0.0134721754831477
-0.6191965800623811 0.7850587397308247 0.01668443619963961
-0.6468774181705436 0.7622998885521675 0.02117748272019434
-0.6761587587093461 0.7362606225819671 0.0270116392662437
-0.7068507530744836 0.7065343558982885 0.03422304506360457
-0.7387310761840533 0.6726394502725539 0.04280849234656722
-0.7715245918000144 0.6340142224157649 0.05268557698605296
-0.804843507886738 0.5900626922475345 0.06366276015192274
-0.8381294630035975 0.5402315345043771 0.07542474641884214
-0.8706319172159589 0.4840854230051841 0.08752924059281561
-0.901413089401672 0.4213915848418833 0.0994161681004589
-0.9293815635183322 0.3522132984195308 0.1104341514598358
-0.953362569851537 0.276995282191474 0.1198892157357703
-0.9722059731602709 0.1966136886349775 0.1271164945742213
-0.9849180592554974 0.1123683672402478 0.1315665861689228
-0.9907923850839059 0.02590422789503483 0.1328887528608286
-0.9895094610228875 -0.06093295130689436 0.1309893201418555
-0.9811797578276874 -0.1462806515701381 0.1260486168326158
-0.9663192415294859 -0.2284444911604814 0.1184915098574885
-0.9457657570002552 -0.3060449658753534 0.1089202081713369
-0.9205600143345883 -0.3781003881561489 0.09802732519288196
-0.8918207292604929 -0.4440403848945405 0.086509672545849
-0.8606393411768195 -0.5036616024310868 0.07499943103303597
-0.8280058893978759 -0.5570524589451086 0.06402191113704814
-0.7947666406493165 -0.6045097844289351 0.05398062097347503
-0.7616151489043801 -0.6464538323672846 0.0451642289539955
-0.7291278761489343 -0.6833346778684875 0.03776583436009633
-0.6978155376837268 -0.7155667655161499 0.03190108863229704
-0.6681538397943567 -0.743510374992016 0.02761826655110887
-0.641054250763938 -0.7670905532365361 0.02493051769920242
-0.6197317589518725 -0.7844512987239302 0.02384757590945287
0 0 0
0 0 0
0 0 0
0 0 0
0 0 0
0 0 0
0 0 0
-0.4967953380718055 0.8677789679344461 0.01241188465734399
-0.5292261068727806 0.8483815381658151 0.01298050475464421
-0.5551597225864368 0.8315998043919471 0.01547409942533115
-0.5817139675423271 0.8131545777152357 0.01971021833771557
-0.609834720135161 0.7921141468816301 0.02562796183187982
-0.6396778208068586 0.7679228492301907 0.03326835129629143
-0.6712537454728633 0.7399978366783319 0.04268033387920651
-0.7044691568162591 0.707687267686297 0.0538696412582438
-0.7391170123089501 0.6702610982530176 0.0667540432045063
-0.7748315909678677 0.6269409955905469 0.0811233239342182
-0.8110357810888045 0.5769644589759707 0.09660732307769039
-0.8469041313685975 0.5196749494417804 0.1126558440272125
-0.8813526163033382 0.4546379360986709 0.1285375929259652
-0.9130677252732018 0.3817760057192625 0.1433680945031557
-0.9405884689396823 0.3015003757260071 0.1561757200552646
-0.9624456998903509 0.2148018016530505 0.1660074117898817
-0.9773442056806156 0.1232602431493898 0.172061663601393
-0.9843518496752995 0.02894585344254904 0.173820521254822
-0.9830472533681242 -0.06578571659047991 0.171144199837633
-0.9735829862726887 -0.1585629984464144 0.1642983395048028
-0.9566462510864018 -0.2472675788115288 0.1539048236768972
-0.9333324681917335 -0.3302374327984202 0.1408323180162667
-0.904972223905774 -0.4063670634531917 0.1260598417398126
-0.8729581151896231 -0.4751033110495041 0.1105485095077182
-0.8386062129035219 -0.5363644654523134 0.09514609755353196
-0.8030669014847016 -0.5904217807095844 0.08053367372399678
-0.7672837360256229 -0.6377761268926515 0.06721071638042783
-0.7319927357924265 -0.6790475169169745 0.05550769780858632
-0.6977520770786791 -0.7148856618229407 0.04561282114015924
-0.6649786166574198 -0.7459153255059453 0.03760008728371627
-0.633961927703072 -0.7727245416238552 0.03144927654504583
-0.604833192193346 -0.7958927074559311 0.02704825021465059
-0.5769462098320534 -0.8164256018442106 0.0241310508214178
-0.5436212341321111 -0.8390373410794016 0.02218770098698207
0 0 0
0 0 0
0 0 0
0 0 0
0 0 0
-0.4329405963863406 0.9013513196573579 0.0113242462256134
-0.4610058776167495 0.8873111421870826 0.0123498078310901
-0.4879976052361021 0.8727279161103457 0.01429411506606496
-0.5137768488223391 0.8577363439725441 0.01793638321401523
-0.5402785996128523 0.8411582422287074 0.02349140972964412
-0.5683615745849138 0.8221921384712298 0.03106779637281707
-0.5983794957782045 0.8001743456093092 0.04077984380714243
-0.6304879450612191 0.7744058894397039 0.05273015772384432
-0.6647121055372684 0.744092208290319 0.06696717340493843
-0.7009352494674591 0.7083278217238995 0.08343544226445887
-0.7388498302668522 0.6661176486379322 0.1019225514187865
-0.7778936091550518 0.6164379612681981 0.1220072651248053
-0.8171909757612668 0.5583412732980438 0.1430172425488173
-0.8555192060536502 0.4911085118402625 0.1640101145398478
-0.891323705733435 0.4144403880756928 0.1837966711594239
-0.9228070097009065 0.3286584619413064 0.2010244717472107
-0.9481049682451647 0.2348613736862054 0.2143294294749628
-0.9655359171428849 0.1349686691336704 0.2225395494273616
-0.9738725393592065 0.03159918955155893 0.2248861229639013
-0.972560020254306 -0.07221943283709759 0.2211591294150693
-0.9618092235457552 -0.1734472751428063 0.2117523559440284
-0.9425348343563138 -0.2694248156475845 0.1975812611007949
-0.9161654111409944 -0.3581556722609588 0.1799040128961908
-0.8843928781427592 -0.4384236245009261 0.1601060978533823
-0.8489341960960919 -0.5097529864062944 0.1395085070830657
-0.8113539805731697 -0.5722652180487992 0.1192360617415397
-0.772963625721111 -0.6264953235540619 0.1001540956574661
-0.7347880282960466 -0.6732165623069234 0.08286141266268572
-0.6975802113333675 -0.7132993448921775 0.06771922424602997
-0.6618619648377455 -0.7476129752061823 0.05489607276006531
-0.6279660959350135 -0.7769723512470408 0.04441337359153702
-0.596053178354626 -0.8021293520716463 0.03618164062710307
-0.5660570360546959 -0.8238191996398656 0.03002262876070535
-0.5373977241801602 -0.8429377363405821 0.02568382173662863
-0.5084127288504058 -0.8608085817298573 0.02291468444283208
-0.4794013984199409 -0.8773252825349169 0.02178641361106266
0 0 0
0 0 0
0 0 0
0 0 0
-0.4034013993995814 0.9149573190101087 0.01097339292529371
-0.4221523494673376 0.9064361207913013 0.01268671604568202
-0.4450241542529648 0.8953786066736021 0.01583201953862818
-0.4692022624272972 0.8828458712262398 0.02079434038113377
-0.4947890936981169 0.8685657431034821 0.02788014821501828
-0.522229579909294 0.8519873415897394 0.03733410824715441
-0.5518802972277806 0.832460108278824 0.04937920266857555
-0.5839904585533259 0.8092170753684736 0.06420957289041399
-0.6186995619373052 0.7813414717364169 0.08195338067069551
-0.656003576684859 0.7477493262305501 0.1026170185613955
-0.6956908072262944 0.7072018093426453 0.1260154816017245
-0.7372573281371281 0.6583619013443558 0.1516945581303009
-0.7798179056386271 0.5999120303543004 0.1788563386675621
-0.822037230747467 0.5307459324161647 0.2063093465859724
-0.8621172655084635 0.4502324666148455 0.2324748298593221
-0.897882816895601 0.3585164552049058 0.2554846345104311
-0.9269958216202018 0.2567784241408043 0.2733927350798688
-0.9472900619366664 0.1473425357025177 0.2844850008854213
-0.9571580318748999 0.03353460864190373 0.2876176838106481
-0.9558716851818136 -0.08073037067985532 0.2824746514602192
-0.9437199459417085 -0.1915341208302713 0.2696429939559961
-0.9219128274748065 -0.2955315293297262 0.2504752556829519
-0.8922985039416153 -0.3903424427800138 0.2267954083046792
-0.8570046959224203 -0.4746779962098291 0.2005585976245854
-0.8181168629280924 -0.5482331153006361 0.1735662694202296
-0.777459215244808 -0.6114433114051996 0.1472896655192448
-0.7364900497399067 -0.6652080528412655 0.1228033104978899
-0.6962874972355571 -0.7106497818939799 0.1007998446798535
-0.6575904815480171 -0.7489379407815445 0.08164998123297856
-0.6208626739516873 -0.7811800022212894 0.06547781473985223
-0.5863547296644686 -0.8083686716666678 0.05223238141205332
-0.5541477054268921 -0.8313708743814858 0.04174673400726665
-0.524171314251634 -0.8509424310984484 0.03378479350205748
-0.4962406356582668 -0.8677305538519869 0.02808767404400873
-0.4704994642127749 -0.8820615841590329 0.02444618429015619
-0.45001798323504 -0.8927286436423226 0.02278998871446173
0 0 0
0 0 0
0 0 0
-0.3273004814986962 0.9448706267646924 0.009689865221883242
-0.3559098637467948 0.9344564758323778 0.01092079038669286
-0.3770450096807957 0.9260972547318758 0.01345122495876587
-0.3983822402901567 0.9170486063589537 0.01770435529737999
-0.4208943239038757 0.906791748364521 0.02401443739740944
-0.4450248764655512 0.8949195866676866 0.03273824560597787
-0.4712033258888713 0.8809150875377449 0.04422707563961906
-0.4998250669345016 0.8641266297386114 0.05882236173861863
-0.5312304099753894 0.8437358305457648 0.07683814007787632
-0.5656797666417827 0.8187186403860609 0.09851999541462379
-0.6033049144046603 0.7878149216197083 0.1239791495716835
-0.6440295315404522 0.7495237219297261 0.1531017725841081
-0.687460547528948 0.702147533080936 0.1854368824682788
-0.7327620028002295 0.6439151042922755 0.2200754091589156
-0.7785384147418495 0.5732125629876738 0.2555490058762695
-0.8227757295702051 0.4889349051269392 0.2897977870493961
-0.8629050176686707 0.3909241427298862 0.3202705810921978
-0.8960482972515008 0.2803871336338801 0.3442099712170783
-0.919454984871258 0.1601174180634996 0.3591168935431368
-0.9310424638068857 0.03434370692978788 0.363291123457103
-0.9298621018799049 -0.09185341084913982 0.3562575225912623
-0.9163011477761774 -0.2134092624128255 0.3388933361700593
-0.8919373880390312 -0.3261221247258537 0.3131965127238881
-0.8591245947661013 -0.427190983326745 0.2818027580282178
-0.8204893852741885 -0.5153301700436773 0.2474509739223875
-0.7785089189950951 -0.5905412838215026 0.2125672955737525
-0.7352536691674859 -0.6537177912517199 0.179039357060734
-0.6922929912814556 -0.7062422359295899 0.1481631479543664
-0.6507150379333031 -0.7496671694305533 0.1207024212078677
-0.6112053820165274 -0.7855056127148307 0.09699955354293398
-0.5741419226979908 -0.8151180652061568 0.07709469745206311
-0.5396803842151545 -0.8396694205941955 0.06083047766038444
-0.507819014718123 -0.8601291266178931 0.04793468299941558
-0.4784431904155825 -0.8772923129365472 0.03808295166345596
-0.4513657690744828 -0.8918022390918856 0.03094687154624076
-0.4263619061738711 -0.9041724601342586 0.02622379260414229
-0.4026632327660382 -0.9150438267664189 0.02360330644359805
-0.3727442910834529 -0.9276566759915936 0.02268887288784912
0 0 0
0 0 0
-0.2974830136784108 0.954682594444581 0.009219568177168722
-0.3124003010979053 0.949885319060624 0.01113249778952977
-0.3297940307382022 0.9439407443855016 0.01455226368625102
-0.3486008952123119 0.9370607197393404 0.01986512971926897
-0.3688884570164099 0.9290668752185786 0.02749632069273988
-0.3909459973334199 0.9196336056271008 0.03788480658885562
-0.4151644781235394 0.9082882434668269 0.05148711376990129
-0.4419705289959989 0.8943894588983841 0.06877170428636881
-0.4717868223332846 0.8770870893324375 0.09019662964331761
-0.5049944475133782 0.8552700324129979 0.1161627291213779
-0.5418756813244305 0.8275147555576861 0.1469356162524477
-0.5825232542924633 0.7920538762809713 0.1825303133093373
-0.626709929260548 0.7467953489558707 0.2225564452989789
-0.6737231901795157 0.6894368221839859 0.2660337031866122
-0.7221907204598069 0.6177280217149431 0.3112115911560606
-0.7699543664564639 0.529920401035179 0.3554639814964937
-0.8140852761476077 0.4253840004501405 0.395365167055353
-0.8511418930287475 0.3052562271232395 0.4270551647432969
-0.8777144434145749 0.1728536666066198 0.4469216550605818
-0.8911574248440188 0.03353783675903821 0.4524529341831041
-0.890251123202499 -0.1061016347870425 0.4429394775047776
-0.8754937182407201 -0.2395275419029058 0.4196871525207673
-0.8488887830703207 -0.3614935430196119 0.3856296828986552
-0.813355239077085 -0.4687689783831046 0.3445415794523464
-0.7720435006017065 -0.5601989172375283 0.3002099370516625
-0.7278033388803072 -0.6362755948866167 0.255843052018924
-0.6829012151735753 -0.6985231984611976 0.2138019446263103
-0.6389563849699861 -0.7489340296495136 0.1755920195767098
-0.5970112015308277 -0.7895653151745813 0.1420008391523832
-0.5576562862523262 -0.8223053268150926 0.1132846675185417
-0.5211589972727088 -0.8487700946197589 0.08934554292671378
-0.4875709029236672 -0.8702828240342751 0.06987432155753655
-0.4568088870783419 -0.8878964819113654 0.05445620346357555
-0.4287180462490867 -0.9024312897617939 0.04264509443336556
-0.4031361281492279 -0.9145076231144511 0.03401572351730545
-0.3799849504913537 -0.9245627429001632 0.02819879148136288
-0.3594181801356684 -0.9328444746967993 0.02489493554151291
-0.3427435082464666 -0.9391272908287689 0.02380796453963578
0 0 0
0 0 0
-0.2557167484422257 0.966701974077033 0.009810090810086811
-0.2658348521155927 0.9639442849539633 0.01196857991878638
-0.2797978270619579 0.9599257220055923 0.01599325493601387
-0.2957340354151718 0.9550119919558675 0.02221430884685469
-0.3132984225823787 0.9491461216880034 0.03107632687455637
-0.3326529234099769 0.9420647801918967 0.04308111499008157
-0.3541564895296818 0.9333367717819844 0.05878478853917818
-0.3782569084353661 0.922341571959078 0.07878918616774275
-0.4054415674143833 0.9082180368960077 0.1037165988129636
-0.4361975355434284 0.8897939082235108 0.134158528890895
-0.470954143812647 0.8655070274116602 0.1705865760449151
-0.5099892986297047 0.8333376403193474 0.2132118488972019
-0.5532855299360291 0.7907879368400222 0.2617815144575867
-0.6003317318532212 0.7349686156355428 0.3153140430759228
-0.6498890840004267 0.6628752687562102 0.3718071497005777
-0.6997825782312923 0.5719359841969021 0.4280111834808591
-0.7468366639597092 0.4608452316273513 0.4794336970341828
-0.7871104033649637 0.3305300037137124 0.5207755078339004
-0.8165342310094796 0.1848575488209185 0.5468999325595854
-0.8318558159967153 0.03056850574482836 0.5541493190909531
-0.8315422456149674 -0.1238465345369976 0.5414790204992184
-0.816190665075409 -0.2700134737418302 0.5108086943676963
-0.7882353704178715 -0.4014602388248885 0.4663846882830351
-0.7511465669761306 -0.5145665708986705 0.413521558124309
-0.7085445041927411 -0.6084947091932595 0.3573497928669787
-0.6635648244204714 -0.6844513432420024 0.3020067590734473
-0.6185742541610497 -0.7447751349581185 0.250351533722517
-0.5751592106915265 -0.7921834948370018 0.2040519366841033
-0.5342580225689334 -0.8292908261358046 0.1638447161422268
-0.4963339982644687 -0.8583693867090948 0.129825105921229
-0.4615332142880331 -0.8812748943874893 0.1016939163926513
-0.4298071378511593 -0.89946322749245 0.07894128603626289
-0.4010019532620033 -0.9140458699236557 0.06097197024506446
-0.3749288934741976 -0.9258519176576389 0.04718634768538271
-0.3514424191052804 -0.9354768047600811 0.03703206461023926
-0.330579605111634 -0.9432999358621581 0.03003923578728055
-0.312912200852586 -0.9494303309455392 0.02584571992099275
-0.3006404012232393 -0.9534314888581509 0.02416081964790636
0 0 0
0 0 0
-0.206484872546431 0.9783873171751128 0.01105689831591169
-0.215222408858772 0.9764762506502974 0.01316991423526528
-0.226783380773829 0.9737865087874776 0.01758219293169946
-0.2398748828775281 0.9704930610100775 0.02456133334698388
-0.2543427047322982 0.9664975133941409 0.03453035117691004
-0.2704019136033024 0.9615484155495401 0.04803592066194171
-0.2884252542582184 0.9552437472715383 0.06572865436558711
-0.3088764806356392 0.9469900146277472 0.08834722353011357
-0.332281359963795 0.935933840610277 0.116691661317794
-0.3591999939170597 0.9208700238528092 0.1515709851498966
-0.3901797160583449 0.9001318435256521 0.1937071331875507
-0.4256694402221513 0.8714803033066302 0.243572594126563
-0.4658765191019902 0.832030721139937 0.3011377559004659
-0.5105519515291234 0.7782902916881255 0.3655146052537647
-0.5587104533385319 0.7064227955003238 0.4345221091357253
-0.608340053993265 0.61287935787611 0.5042829279252252
-0.6562353093585176 0.4954727637826564 0.5690887093421428
-0.698162691578335 0.3547465096007915 0.6218711844217818
-0.7295390104319192 0.1951049796985256 0.6555203117790122
-0.7465666157603208 0.02489060703096253 0.6648449036533343
-0.747387599215669 -0.1451193672290432 0.6483456992945045
-0.7326338618495289 -0.3043678677288686 0.6087756775411011
-0.705060112125435 -0.4450266254100121 0.5521245701522849
-0.6685331500124457 -0.5631915287373417 0.4856734801210912
-0.6269620044018264 -0.6585744729488043 0.4161710088613192
-0.5835937944273376 -0.7333279762369347 0.3487812528994978
-0.54075711853653 -0.7907640264888417 0.2868344351071246
-0.4999162853463001 -0.8344005592657002 0.2320763114638
-0.4618626041392664 -0.8674222731940169 0.1850987165396313
-0.4269241910393951 -0.8924634482788657 0.1457557154678802
-0.3951398873001118 -0.9115838282222505 0.1134874159901485
-0.366385081622735 -0.9263359686752785 0.08754224753074737
-0.3404572349206485 -0.9378615226322731 0.06711658182640094
-0.317137281128234 -0.9469837925590563 0.05143580026651415
-0.2962489935754384 -0.954281254688002 0.03979724559101942
-0.2777573407560953 -0.960131733720471 0.03158976984759206
-0.2620262868297237 -0.9647022028929039 0.02630370209314949
-0.2507012125568633 -0.9677773552862398 0.02357737512296504
0 0 0
-0.1174826212064537 0.9930107364704027 0.01129207549428054
-0.1467474739842778 0.9891042187607314 0.01174833217763572
-0.1604220018207493 0.9869473865731065 0.01412931238022914
-0.1710044123543039 0.9850872463756805 0.01898968096988151
-0.1813746946491115 0.9830526436198261 0.02665933256875948
-0.192428507883103 0.9805902945319364 0.03760244172460136
-0.2046480541315467 0.9774304166104334 0.05243047420084401
-0.2184620857489696 0.9731936380293504 0.07189200226316347