# OOMMF: rectangular mesh v1.0
# Segment count: 1
# Begin: Segment
# Begin: Header
# Title: 
# Desc: time = 2.78e-09
# Desc: stepsize = 2.9534474579161296e-14
# Desc: step = 17790
# meshunit: m
# valueunit: (none)
# valuemultiplier: 384000.0000000001
# xmin: 0
# ymin: 0
# zmin: 0
# xmax: 9.357999999999999e-08
# ymax: 9.357999999999999e-08
# zmax: 2.3395e-08
# ValueRangeMaxMag: 1
# ValueRangeMinMag: 0
# meshtype: rectangular
# xbase: 1.16975e-09
# ybase: 1.16975e-09
# zbase: 1.16975e-09
# xstepsize: 2.3395e-09
# ystepsize: 2.3395e-09
# zstepsize: 2.3395e-09
# xnodes: 40
# ynodes: 40
# znodes: 10
# End: Header
# Begin: Data Text
0 0 0
0 0 0
0 0 0
0 0 0
0 0 0
0 0 0
0 0 0
0 0 0
0 0 0
0 0 0
0 0 0
0 0 0
0 0 0
0 0 0
0 0 0
0 0 0
-0.9876386059673264 0.1561959044436526 0.0131462328423369
-0.9920713431314021 0.1248866456442423 0.01406328116710219
-0.9964785319366427 0.08257083783811418 0.01458053936261524
-0.9992434698695153 0.03600330717663761 0.01470543421581341
-0.9998241300398052 -0.01174445750019279 0.01462110488891206
-0.9981868925827991 -0.05840063279952017 0.01457029733774764
-0.9947917174836108 -0.1008435586734113 0.01483291947290338
-0.9910983128944832 -0.132215167871834 0.01559754988231723
0 0 0
0 0 0
0 0 0
0 0 0
0 0 0
0 0 0
0 0 0
0 0 0
0 0 0
0 0 0
0 0 0
0 0 0
0 0 0
0 0 0
0 0 0
0 0 0
0 0 0
0 0 0
0 0 0
0 0 0
0 0 0
0 0 0
0 0 0
0 0 0
0 0 0
0 0 0
0 0 0
0 0 0
-0.9299159736256579 0.3674311000937406 0.01583251969043546
-0.9410478637681748 0.3378484372874597 0.01695144594939961
-0.9549122888754326 0.2963842711808998 0.01728827207238129
-0.9688049481847839 0.2472616498948195 0.01669277879712134
-0.9822041911058181 0.1871622968855541 0.01565891435217647
-0.9903388254038589 0.1377437149991949 0.0159899929932838
-0.9959356884193767 0.08856312013121727 0.01639140888529643
-0.9991286615741267 0.038314679346036 0.01655001413003399
-0.9997866748926472 -0.012438174838036 0.01648928481779371
-0.9978904751582959 -0.06283068621419259 0.01633721084529974
-0.993545505847591 -0.1122697186735982 0.01621228173346424
-0.9866593201324152 -0.1620098851612378 0.01600572103600397
-0.9748429707974934 -0.222398630510485 0.01483345656876965
-0.962171544305699 -0.2721276189205786 0.01313310127130836
-0.9492589833059244 -0.3142606190739884 0.01215096342829709
-0.9387730573743501 -0.3443146937705174 0.01235064377794574
0 0 0
0 0 0
0 0 0
0 0 0
0 0 0
0 0 0
0 0 0
0 0 0
0 0 0
0 0 0
0 0 0
0 0 0
0 0 0
0 0 0
0 0 0
0 0 0
0 0 0
0 0 0
0 0 0
0 0 0
0 0 0
0 0 0
-0.8810350150742 0.4728119725350679 0.01503797994086955
-0.8959995028652529 0.4437661376836903 0.01601580190060869
-0.9176742293336971 0.3969802659167618 0.01675342620068485
-0.9349630387367971 0.3542895520314993 0.01797302193214818
-0.951051822341449 0.3084560825191507 0.01884877656368115
-0.9658526655753441 0.2583767863812069 0.01923706475329053
-0.9788153592452948 0.2038183368767323 0.01945708247160627
-0.9884762912052167 0.1500526055716896 0.01997091100390771
-0.9951575368949855 0.09614417635454364 0.02043952333620732
-0.9989155833361865 0.04173077354339035 0.02064460964988534
-0.9997046875057048 -0.01298646561829624 0.02053994863346341
-0.9975068673608886 -0.0676276716793463 0.02016302534583348
-0.9923406971948862 -0.1219752473032022 0.01954430188289267
-0.9841493734052302 -0.176363116299811 0.01860274267713576
-0.9726389808006161 -0.2316888678748972 0.01713713890902015
-0.9590853013125192 -0.2826960916406241 0.01543711687425574
-0.9440423703814483 -0.329521276854502 0.01413262271323208
-0.9276719889659906 -0.3731526017886505 0.01348394105013665
-0.9071041729221706 -0.4207031298525559 0.0130727196653286
-0.8927825638310686 -0.4502967300484443 0.013120542172568
0 0 0
0 0 0
0 0 0
0 0 0
0 0 0
0 0 0
0 0 0
0 0 0
0 0 0
0 0 0
0 0 0
0 0 0
0 0 0
0 0 0
0 0 0
0 0 0
0 0 0
0 0 0
0 0 0
-0.8437987432354063 0.5364338814478031 0.01556829307255543
-0.8649884496137139 0.5015299142963184 0.01620885871339107
-0.8856750843652782 0.4639708214506825 0.01762730203224553
-0.9071764517354489 0.4203094833920722 0.01925678029603824
-0.9269876216132589 0.3744997129464411 0.02106927570721423
-0.9451703391900168 0.3257847540169536 0.02274475688023798
-0.9614877482611899 0.2737855009698048 0.02414144573838379
-0.9754701271803518 0.2186711548213334 0.0253171291392286
-0.9864358971496299 0.1620190049273152 0.02634507272655146
-0.9941791021743751 0.1042800271252771 0.02708484340926514
-0.9985763882074639 0.04576638412923338 0.02739771885160077
-0.9995431710883176 -0.01312820976058115 0.02722313793800879
-0.9970535959522818 -0.07196209037151684 0.02656283772463149
-0.9911447899917503 -0.130325900979276 0.02543943407682397
-0.9819026398089854 -0.1878767554981278 0.02386484191529639
-0.9694984840494278 -0.2441187523261663 0.02187976664813411
-0.9545418158019299 -0.297424364757932 0.0197146933502646
-0.9374951680342553 -0.3475470346579761 0.01771633745645148
-0.918637060500055 -0.3947750292316756 0.0160818957510478
-0.8979941387740442 -0.4397582281332461 0.01480633366401871
-0.8780117884787045 -0.4784334933542619 0.01402468285786461
-0.8576536921785124 -0.514045153769587 0.01370124733615446
0 0 0
0 0 0
0 0 0
0 0 0
0 0 0
0 0 0
0 0 0
0 0 0
0 0 0
0 0 0
0 0 0
0 0 0
0 0 0
0 0 0
0 0 0
0 0 0
-0.7702503031265977 0.6375203109433923 0.01680248993526013
-0.7907217436361682 0.6119268985754135 0.01745264853404883
-0.8218565721873708 0.5694234390480801 0.01757048135599719
-0.8477008699380869 0.5301364464365491 0.01893629493429318
-0.8718599459398846 0.4892998427866486 0.02111630921023751
-0.8952886209855231 0.4448548518273602 0.02371594272840809
-0.9173568162721928 0.3971825171379905 0.02650508854683865
-0.9377074654484057 0.3461932219278058 0.02923973894499776
-0.9559346574808731 0.2918585147959846 0.03174173857883901
-0.9715424031114289 0.2344257857739092 0.03391032174360016
-0.9839909657246436 0.1746151522217692 0.03565568659906973
-0.992906278169465 0.1130478138745674 0.03684175009200474
-0.9980345188900208 0.05032279692692199 0.03734588616455872
-0.9992277512201152 -0.01293405441055567 0.03710271456505317
-0.9964479359332482 -0.07607624930818432 0.03610976689993979
-0.9897701196639942 -0.1384585798567631 0.03441412332706649
-0.9793833312917727 -0.1994434823588158 0.03210276829835805
-0.9656055306014755 -0.2583533195092 0.02931759830579438
-0.9489274182065471 -0.3143975420751043 0.0262857473355695
-0.9298327576167728 -0.3672457298279022 0.02327266177211619
-0.9087514957640812 -0.4168348886682396 0.02047912438267965
-0.8860937162749859 -0.4631560865434103 0.01801014924362334
-0.8625453611326752 -0.5057292693889136 0.01591873336224549
-0.8373245101251628 -0.5465249298816224 0.01407713612718316
-0.807098646873911 -0.5902936378859031 0.01204970064889243
-0.7870674727340109 -0.6167661457980108 0.01114965297951491
0 0 0
0 0 0
0 0 0
0 0 0
0 0 0
0 0 0
0 0 0
0 0 0
0 0 0
0 0 0
0 0 0
0 0 0
0 0 0
-0.7231917626937991 0.690464515336137 0.01588796505122086
-0.7483607620808393 0.663074401106139 0.0169855343018815
-0.7738745326063633 0.6330669382279349 0.01855962030836451
-0.8020103526788606 0.5969602156364407 0.0204424837831287
-0.8292819815524972 0.5583519546524265 0.02311903562386846
-0.8557426810908658 0.5167212091909907 0.02652650997807082
-0.881408098920464 0.4713747207223801 0.03042426369382896
-0.9058492937189385 0.4221879937274739 0.03455944185415039
-0.9285781645790289 0.3691166406632739 0.03867166730955807
-0.9490538396894392 0.3122322467306949 0.04251862500403899
-0.9666879555525203 0.251811360661627 0.04588502186365575
-0.9808909737993171 0.1883981748310967 0.04856979760446073
-0.991167755462585 0.1226705626387676 0.05038267155629331
-0.9971518032626486 0.05540249456559317 0.05117465042339876
-0.9986263866422521 -0.01256311899847688 0.05086755294752315
-0.9955384761668737 -0.08035101652787134 0.04946571150075846
-0.9880027391758905 -0.1470939608863197 0.04705267316222211
-0.9762948918437365 -0.2119702616590596 0.04378232899259914
-0.9608362300016359 -0.2742334745764374 0.03987155048374372
-0.9421649719109373 -0.3332546506159789 0.03558796913121384
-0.9208516740420432 -0.3886618755071731 0.03121123101085385
-0.8974538540775441 -0.4402824707283835 0.02698009953042883
-0.872506644739144 -0.4880575348936867 0.02306507141845493
-0.8465114844028688 -0.5320107312647004 0.01956753927426453
-0.8195681769613943 -0.5727436600962987 0.01651372555397368
-0.7917386196743782 -0.610700379297058 0.0139644134334179
-0.7664471961820755 -0.6421872863807279 0.01241711220822605
-0.7417488762216448 -0.6705705997242387 0.01198646776167636
0 0 0
0 0 0
0 0 0
0 0 0
0 0 0
0 0 0
0 0 0
0 0 0
0 0 0
0 0 0
0 0 0
-0.6697108687143336 0.742462070139415 0.01540865763738927
-0.6966592044820217 0.7172132438535899 0.0164655899222454
-0.7235268163967113 0.6900496065306078 0.01845227578897539
-0.7510530114953329 0.6599008359990274 0.02121934427770008
-0.7796785458286334 0.6256924457344317 0.02470482797779288
-0.8084548470238491 0.5878431034227227 0.02900424248254899
-0.8370225265829261 0.5461074102974676 0.03405857323682104
-0.8650586554489905 0.5000994608236367 0.03967432314094931
-0.8920664919755141 0.4495989561700555 0.04558675800378571
-0.9174434143097819 0.3945205743287142 0.05148881403713655
-0.9405106300788699 0.334939713062074 0.05705386334458249
-0.9605422009148067 0.2711465521479892 0.06195343025205693
-0.9768179844941411 0.2036846006269332 0.06587266987340086
-0.9887004590276436 0.1333212139638699 0.06853361383822121
-0.9956988016969953 0.06100571515212638 0.06972947022561476
-0.9975175422336106 -0.01218803974783428 0.06935563872765975
-0.994085579303295 -0.08513293797158605 0.06742583995441165
-0.9855618399630487 -0.1567253008333894 0.06407058363502806
-0.9723169372327455 -0.2259579036072386 0.0595214194030584
-0.9548935609232206 -0.2919812285749089 0.0540855754084032
-0.9339496973310739 -0.3541512895253332 0.04811264888507501
-0.9101875253192627 -0.4120662772455226 0.04195297260280943
-0.8843005682111686 -0.4655345982926731 0.03591716656256922
-0.8569408549650961 -0.5145261697282879 0.03025213639442414
-0.8286843101609194 -0.559151489981752 0.02513812531409917
-0.7999593626919064 -0.5996968068780738 0.02070646908096405
-0.77123651700948 -0.6363189993220206 0.01709871143999471
-0.7435590508504318 -0.6685124874645756 0.01452556375258816
-0.7166895865834531 -0.6972703508728098 0.01304201964986511
-0.6901390083009455 -0.7235686965578646 0.01250961961612434
0 0 0
0 0 0
0 0 0
0 0 0
0 0 0
0 0 0
0 0 0
0 0 0
0 0 0
-0.6154011854227771 0.7880787199394889 0.0146052099874362
-0.6410622165736982 0.7673247468492304 0.01587347959274786
-0.6676295491115576 0.7442752906801972 0.01802988729875513
-0.6952925119931711 0.7184139284331105 0.02120731476475259
-0.724067704018822 0.6892605940262169 0.02541246779708985
-0.7538966395469228 0.6562785893172912 0.03063119461534641
-0.7843638717020237 0.619205375300382 0.03685132246913298
-0.8150915700856136 0.5776607842895668 0.04397443199555187
-0.8456436243236081 0.5312290668926473 0.05179323439600642
-0.875440675131674 0.4795863667634971 0.06000450932710746
-0.9037656889412745 0.4225549072822808 0.06822704613396517
-0.9297888541680385 0.3601570824943666 0.07602343450563018
-0.9526090075254393 0.2926756984863949 0.08292776553662874
-0.971320233080477 0.2206987961939347 0.08848189739735117
-0.9851008972821723 0.1451215999898052 0.09228186923907475
-0.9933051650298497 0.06710681618463871 0.0940293802307761
-0.995539919530813 -0.01199507386779595 0.09357556744945766
-0.9917119416281502 -0.09075524581568613 0.0909445445810701
-0.9820358267894643 -0.1677875203601778 0.08633066033174659
-0.96700170808842 -0.2418601559839689 0.08007097789766333
-0.9473106288463313 -0.3119804477001555 0.07260008765544605
-0.9237915793522572 -0.3774417058480357 0.06439624681910304
-0.8973165115562506 -0.4378300369598197 0.05592796102383774
-0.868732375461566 -0.4929881104653912 0.04761074211422721
-0.8388142097207124 -0.5429623339776264 0.03978222532972236
-0.8082326713323299 -0.587954754385139 0.03269794774778025
-0.7775399084852287 -0.6282730389386344 0.02654579544099398
-0.7472433713337705 -0.6642034440183449 0.02147391328821524
-0.7178992200759978 -0.6959244145961263 0.01760451599200561
-0.6897468143588392 -0.7238955070546406 0.01498755977260608
-0.6629746398082028 -0.7485180902760135 0.01361232899739194
-0.6376190026357703 -0.7702340289718086 0.01347397831452973
0 0 0
0 0 0
0 0 0
0 0 0
0 0 0
0 0 0
0 0 0
0 0 0
-0.5886823107829278 0.8082155306544742 0.01551750560428698
-0.6092639259060713 0.7927748709535158 0.01747777371856655
-0.6351071929388137 0.7721461459703247 0.0207167261060738
-0.6632419487780342 0.747978692632446 0.02525851834474824
-0.6929926253685927 0.720272032128908 0.03113552500983707
-0.7241115930355851 0.6886158453559285 0.03834864216900689
-0.7563114311277938 0.652531735871984 0.04685459236108364
-0.7892404595546968 0.6114772935127815 0.05652447717736245
-0.8224253521590307 0.5649000204163144 0.06711562455748719
-0.8552201156202083 0.5123217582216596 0.07826218685434505
-0.8867944861388488 0.4534191742310422 0.08947956075760854
-0.916152147837467 0.3881089318598615 0.1001833270728874
-0.9421798775867329 0.3166342950327842 0.1097260291805941
-0.9637325514449965 0.2396331978930183 0.117454245359127
-0.9797497008325307 0.1581607410294509 0.1227831572960281
-0.9893843806731842 0.07364874056128327 0.1252773335191816
-0.9921170809950853 -0.01220151833968154 0.1247189662721634
-0.9878271205739194 -0.09757832039487931 0.1211447532811602
-0.9768035338234767 -0.180738783369222 0.1148405350744284
-0.9596940010841596 -0.2601705269589747 0.1062954429172114
-0.9374071849055755 -0.3347045007872117 0.09612838727549439
-0.9109940864190631 -0.4035639746334813 0.08500525211728466
-0.8815347685305673 -0.466352644790716 0.0735640032112372
-0.8500498779740435 -0.5229975490642838 0.06235999221508497
-0.8174430261925948 -0.5736722484295392 0.05183676601495561
-0.7844714604820057 -0.6187192031763875 0.04232109769375817
-0.7517460309123124 -0.6585737951555298 0.03403617695961913
-0.7197720123923416 -0.6936804367932541 0.02712382323712473
-0.6890025444573009 -0.7244351084464244 0.02166258021524296
-0.6598675486937305 -0.7511740038582583 0.01767580573779269
-0.6332341640595596 -0.7738117047189966 0.01516374319455991
-0.6122467086144822 -0.7905403328768669 0.01414036370343639
0 0 0
0 0 0
0 0 0
0 0 0
0 0 0
0 0 0
0 0 0
-0.5116506022121002 0.8590222295958548 0.01716013741673892
-0.5444503327198184 0.838609012464643 0.01757155127911946
-0.5708979732302112 0.8207747855219086 0.02010610885033868
-0.5980777973155681 0.8010644562863471 0.02446804513680564
-0.6269003166261974 0.7785002306751589 0.03055133143903115
-0.6574757917871177 0.7524985514634083 0.03836030838476951
-0.6897578413552393 0.722453816695926 0.04790201488924677
-0.7235820448706715 0.6877008952318269 0.05913123572293016
-0.7586533510891289 0.6475143809272993 0.07190423752165884
-0.7945020870986201 0.6011494665954904 0.08594040032425702
-0.830437139895015 0.5479182007893011 0.1007958428051577
-0.8655207786429855 0.4872902366601679 0.1158533857637189
-0.8985765556570883 0.4190140273509207 0.1303357913491337
-0.9282417671960552 0.3432460026695922 0.1433506305674676
-0.9530734536946418 0.2606601015245109 0.1539717614882639
-0.971704256716057 0.1724994592467423 0.161352948654421
-0.9830242978017386 0.0805363260557639 0.1648548759267926
-0.9863479611224244 -0.01307289326366282 0.164154802096535
-0.9815201551210143 -0.1060171894134554 0.1593064362795525
-0.9689311610147754 -0.1960935616447705 0.1507306216268862
-0.9494379152036854 -0.2814387577663957 0.1391397527688878
-0.9242186349429765 -0.3606796393436808 0.1254197456027286
-0.8946033818681253 -0.4329826596818558 0.110502513839908
-0.861920606390481 -0.498014882672697 0.09525778139325501
-0.8273845173659753 -0.5558483558202734 0.08042055555000062
-0.7920296736349369 -0.6068435644504121 0.06655737650218246
-0.7566872526941141 -0.6515377207380291 0.05406477657151301
-0.7219946944426867 -0.6905493309325892 0.04318891924052098
-0.68843003579387 -0.7245028572058139 0.03405430541741535
-0.6563490922634589 -0.7539850704335752 0.02669049733912303
-0.6259980123540828 -0.779540522515119 0.02104904476675431
-0.5974814905031022 -0.8017024220134075 0.01700279518277405
-0.5701564113417483 -0.8214120272166145 0.01428104162133627
-0.5374527839873235 -0.8432030410071235 0.01237483820557491
0 0 0
0 0 0
0 0 0
0 0 0
0 0 0
-0.4472851526497115 0.8942381666082299 0.01655577241555905
-0.4756822206349047 0.8794434610082799 0.01748210117874297
-0.5032132575792686 0.8639432347548949 0.01945519256417557
-0.5297008889061093 0.8478655736724615 0.02325805824106987
-0.5570484197504357 0.8299711699605155 0.02906742313854359
-0.5860795008163208 0.8094103236686154 0.03695600981652977
-0.6171055964646598 0.7854754674022559 0.04699971192681361
-0.650226590279657 0.7574262027639382 0.0592530898763271
-0.6853927839767026 0.7244340716163961 0.07370215433727273
-0.7223888130851877 0.6855772578587073 0.09021211801254189
-0.7607832239592484 0.6398766005718576 0.1084749841335554
-0.7998687258134142 0.5863747862899437 0.1279633989430103
-0.8386159283741892 0.5242601036182886 0.147900873666242
-0.8756626223344275 0.4530319603205027 0.1672633097082439
-0.9093621952249105 0.3726910517281046 0.1848290503614918
-0.9379103738847044 0.2839147357335859 0.1992901236709474
-0.9595514218871076 0.188158600694732 0.2094216076221126
-0.9728337702122309 0.0876243213642573 0.2142812027222862
-0.9768534956126841 -0.01493614726325617 0.2133873464247814
-0.9714121008791384 -0.1165533762568991 0.2068183762355171
-0.9570367850087883 -0.2144266348508288 0.1951968504013092
-0.9348600016148161 -0.3062569068031887 0.1795647081586156
-0.9064042807939954 -0.3904459878338751 0.1611930840413105
-0.8733417118924742 -0.4661377678164387 0.1413854153858528
-0.837288494453448 -0.5331315601825273 0.1213207179059793
-0.79966662799664 -0.5917243308024999 0.1019588171999702
-0.7616360407991319 -0.6425368294767911 0.08400573862383419
-0.724083029383204 -0.686360038323147 0.06792396007514408
-0.687645778324989 -0.7240377735653439 0.05396837965290018
-0.652757952114111 -0.7563885087681546 0.04223126513945352
-0.6196893692771651 -0.7841663404500967 0.03268388150100611
-0.5885593832690126 -0.8080609122855354 0.02520742752180564
-0.5592797442680564 -0.8287470139271444 0.01961006267961228
-0.5312682873938013 -0.8470593067365805 0.01563770061743977
-0.5028826964075561 -0.8642561246285001 0.01305161660454531
-0.4744014506280725 -0.8802273435159027 0.01196191326323741
0 0 0
0 0 0
0 0 0
0 0 0
-0.4174270537376803 0.9085608675696829 0.01648650141493114
-0.4366160122457594 0.899462416358216 0.01827072548231534
-0.4601698468598389 0.8875681521171227 0.02159831911024886
-0.4852264570083868 0.8739757069980334 0.02686538658525969
-0.51185960411987 0.8583815381543826 0.03436394369052976
-0.540485241018935 0.8401857416023146 0.0443127955434102
-0.5714234377717711 0.8186805572991388 0.05689815344509808
-0.6048717673838342 0.7930374368037042 0.07226180768405527
-0.6408947916043183 0.7622802190381626 0.09045846426724213
-0.6793824115388837 0.7252796826826559 0.1113953355368008
-0.7199803769509716 0.6807846525300816 0.134760950148895
-0.7620061718950515 0.6275046005433144 0.1599517748911357
-0.8043710811486338 0.5642576175126283 0.186012109527176
-0.8455381660826582 0.49018936268264 0.2116119051716188
-0.8835541969565726 0.405046468027765 0.2350943210259625
-0.9161919925422204 0.3094516073957598 0.2546211607107627
-0.9412164430660417 0.2050893428976489 0.2684212523849762
-0.9567394721731503 0.09469919120974724 0.2751029726667115
-0.9615733584309979 -0.01818666303070295 0.273945106989592
-0.9554645077648426 -0.129728121087585 0.2650626133591301
-0.9391212809535826 -0.2363484578419468 0.2493804846731904
-0.9140311630012105 -0.3352140668980658 0.2284262734807739
-0.8821449241958857 -0.4244938697362572 0.2040227616511744
-0.8455396931500895 -0.5033727682889009 0.1779845034063928
-0.806150275560241 -0.5718828543619952 0.1518938250914916
-0.7656074535301854 -0.6306509678582529 0.1269826123470195
-0.7251771629682597 -0.6806466606687765 0.1041067030971048
-0.6857716105131132 -0.7229785302786793 0.08378151926487909
-0.6479999523809425 -0.7587538179847003 0.06624730491073606
-0.6122320411052444 -0.7889965255270166 0.05154037786436862
-0.5786555389787793 -0.8146122011152798 0.03955665561314625
-0.5473128364870237 -0.8363865901258638 0.03010200780942483
-0.5181130528051469 -0.8550046796791074 0.02293168636969392
-0.4908623491609936 -0.8710554604286035 0.01779154388085033
-0.4656940021969839 -0.8848271971983543 0.01448887213897211
-0.4456188027015117 -0.8951286702446104 0.0129825415457207
0 0 0
0 0 0
0 0 0
-0.3403295995583775 0.9401748834094862 0.0157147150910541
-0.3694118117231827 0.9291125785099364 0.01687393890034661
-0.3911646081114666 0.9201129492855556 0.01955530408965947
-0.4133254056922417 0.9102638572669407 0.02412092790201434
-0.4368670851798878 0.8989954673718377 0.03089173888468249
-0.462222563080839 0.8858516721513167 0.04021339485414757
-0.489804763449722 0.8702549534366857 0.05241764703679273
-0.5199834172414356 0.8514803076144078 0.06781247332749073
-0.5530565794833223 0.8286246564837083 0.08665793995626299
-0.5892157137693651 0.8005737258690127 0.1091171484940117
-0.6284855475731149 0.7659841365476644 0.1351821698636712
-0.6706339575477959 0.7233010301026432 0.1645773825172703
-0.7150577979375644 0.6708367006252499 0.1966480783097299
-0.7606632446963181 0.6069388449457779 0.2302534835001497
-0.8057767686744158 0.5302695472165441 0.2637005998464504
-0.8481418352982943 0.4401871021367744 0.2947723567929487
-0.8850637289392426 0.337166086453528 0.3209068803590456
-0.9137397716925543 0.2231204079795657 0.3395539915392992
-0.9317416819823027 0.1014541468028356 0.3486610017671863
-0.937521494835483 -0.02328389092801685 0.3471473853346637
-0.9307551262215911 -0.1461072303688233 0.3351828937254726
-0.912381058607171 -0.262439498397216 0.3141437785089418
-0.8843269404377377 -0.3688047458258804 0.2862672210930498
-0.8490533925093547 -0.4631559457515113 0.2541552804554298
-0.8090921235941299 -0.5448236666908227 0.2203113881566467
-0.7667062987891432 -0.6142123128262529 0.1868279587472874
-0.723713975784317 -0.6724100681208718 0.1552507054545681
-0.6814491010276182 -0.7208358626551792 0.1265811274195893
-0.6408084895358228 -0.7609802675089699 0.1013583356256108
-0.6023367581567811 -0.7942463094288931 0.07976985478087589
-0.5663160662071849 -0.8218709493813788 0.06175966093308825
-0.5328421731469951 -0.8449018088912362 0.04711848733039014
-0.5018793916861929 -0.8642065976441871 0.03555323879697825
-0.473297015398565 -0.8804969918370157 0.02673915819125081
-0.4469035678137424 -0.8943504029193006 0.02036069432588403
-0.422479297159038 -0.9062289108550262 0.01613705681088434
-0.3992852953790558 -0.9167230611393813 0.01378702539716929
-0.3699689596786808 -0.928953705624049 0.01296077473077925
0 0 0
0 0 0
-0.310034186604926 0.9505993811611539 0.0154796534926587
-0.3253672800562635 0.9454257959883249 0.0174984956104977
-0.3434427443777406 0.9389344289452619 0.02119479831280347
-0.3631688546735594 0.9313331775376857 0.02696099799065725
-0.3846027364700738 0.9224098993850651 0.03522375073958653
-0.4080298778182398 0.9117877039566445 0.04641984189010486
-0.4338371213276313 0.8989243645477295 0.06099458156766439
-0.4624398612843087 0.8830892789888045 0.07938954610263389
-0.4942334908048114 0.86332318425902 0.102011450767824
-0.5295437830508576 0.8383897966036469 0.1291740329287644
-0.5685544592315622 0.8067358188947258 0.1610066625955625
-0.6111996844466274 0.7664837821500269 0.1973260181358068
-0.6570195403465889 0.7154937606334194 0.2374742135420263
-0.704992265068771 0.6515409419472398 0.2801433689375982
-0.7533826501842698 0.5726549891838845 0.3232349698967167
-0.7996793914629797 0.4776346915792055 0.3638378378748359
-0.8407185359859908 0.366669312697487 0.3984293643489701
-0.8730709050502685 0.2418748415753414 0.4233718882585478
-0.8936755604854049 0.1074582680877004 0.4356566460077121
-0.9005465759165719 -0.03072531901699316 0.4336724793853555
-0.8932688469644804 -0.1661996408929776 0.4176702603846634
-0.8730528553215392 -0.2931221525078723 0.3896897683081489
-0.8423369094890002 -0.4072701283568556 0.3529866477088185
-0.8041460302361007 -0.5064381097233666 0.311238820000564
-0.7614792376200733 -0.5902588608332295 0.2678504207228531
-0.7168996820845031 -0.6596893379639983 0.2255323107755519
-0.6723601285658832 -0.7164309880026614 0.1861679267339006
-0.6292047769213258 -0.762455040533334 0.1508763065053492
-0.588265312518282 -0.7996895190617977 0.1201690275839759
-0.5499862594032919 -0.8298526471650287 0.09412597123413248
-0.5145420666814297 -0.8543904002204997 0.07255002154553306
-0.4819304253860641 -0.8744761142639766 0.0550871189025473
-0.4520408130810063 -0.8910400445463916 0.04131273803352292
-0.4247076445831378 -0.9048067462565459 0.03079234582303247
-0.3997677838432974 -0.916324721800122 0.02312408309419756
-0.3771471958460535 -0.925979020031184 0.01796794722683379
-0.3570049090838583 -0.9339811517000803 0.01505666493674055
-0.3406387330469431 -0.9400880394752583 0.01413264248957968
0 0 0
0 0 0
-0.2675342608874903 0.9634085420046528 0.0164134226733215
-0.2780968879892101 0.9603696339242372 0.01876931343824481
-0.2927961681369211 0.955893719990036 0.02318620296526097
-0.3097152261268925 0.9503558550303123 0.03000379167324484
-0.328501154799264 0.9436697767893 0.0396779998233552
-0.3493219229310171 0.9355185282987752 0.05271885212587295
-0.3725462284446641 0.9253938022695352 0.06968226741997119
-0.3986275759099148 0.9125716472558065 0.09115395959040137
-0.4280457407413792 0.8960582575364049 0.1177133931801545
-0.4612536717181902 0.874519763659238 0.1498673856977492
-0.4986019500882589 0.8462116755007726 0.1879412025457963
-0.5402221608441347 0.8089347364192319 0.2319150903827549
-0.5858587885288007 0.7600628092881287 0.2812010061159159
-0.6346550134271648 0.6967112312036738 0.3343747512095161
-0.6849293203144171 0.6161267054047305 0.3889212118935436
-0.7340294010889946 0.5163520199869255 0.4411138512814503
-0.778400070223245 0.3971101870725068 0.4862065713250752
-0.8140020464616432 0.2606532613883954 0.5190958925707746
-0.8371020295043806 0.1121256313500814 0.5354325681110483
-0.8452205239374757 -0.04098194094794543 0.5328440169796389
-0.8378238338521246 -0.1903057127243109 0.511698113279519
-0.8164035185267793 -0.3284463147880196 0.4749824346639185
-0.7839236218196226 -0.4503552897726559 0.4273685389999974
-0.743958264449352 -0.5537827154234783 0.3739663151350754
-0.6999165457108945 -0.6388739544831711 0.3193069045967591
-0.65457735257158 -0.7073483624516999 0.2668085149264913
-0.6099410954540558 -0.7616754891526827 0.2186831253213822
-0.5672908254791055 -0.8044670142900324 0.1761077574853402
-0.5273451484506698 -0.8381222818605186 0.1394924193440568
-0.4904235713530115 -0.8646734557427321 0.1087406804985091
-0.4565863441109201 -0.8857559222572481 0.08345871169408221
-0.4257389904323405 -0.9026428117427981 0.06310520132847022
-0.3977070892625331 -0.9163031599429142 0.04709129674316756
-0.3722962234456879 -0.9274596466976219 0.03484430736290219
-0.3493628502400031 -0.9366309107522155 0.02584832481335054
-0.3289477204698328 -0.9441432051010985 0.01967245432389451
-0.3116198483906401 -0.9500722851166484 0.01599134585405379
-0.2995536319072587 -0.9539685891862154 0.01454484297721092
0 0 0
0 0 0
-0.2173558496879491 0.9759255523786154 0.01804856838986447
-0.2266008161092379 0.9737736164426388 0.02042092208621858
-0.2389382820720596 0.970704434788863 0.0253258295360002
-0.253037968272188 0.9668920199257599 0.03303949782557938
-0.2687504974607163 0.9622041919585849 0.0440029895796156
-0.2863095094467712 0.9563323440299395 0.05878190676177643
-0.30611159186507 0.9487915666120204 0.07804009515460877
-0.3286436243418914 0.9388737785919541 0.102515345445898
-0.3544455708391864 0.9255725923704782 0.1329801246994288
-0.3840700723378004 0.9074867499024601 0.170170438930815
-0.4180158948667295 0.8827131736819991 0.2146629093416462
-0.4566149979022431 0.8487554716819736 0.2666775074516871
-0.4998556495270933 0.8025005636658274 0.3257870085682922
-0.547135875523984 0.7403538774094128 0.3905361313879308
-0.5969741783499117 0.658658220517072 0.4580296703585168
-0.6467674051262365 0.5545107750293435 0.5236503834073183
-0.6927667525572304 0.4269640727450189 0.5811849164734877
-0.7304788647492138 0.2782991542295259 0.6236587279192282
-0.7555791241483553 0.1147021747962217 0.6449368947798079
-0.7651038704465423 -0.05437400996648511 0.6416069937803707
-0.7583645106856503 -0.2182761003681188 0.6141976985797006
-0.737065668212762 -0.3677802835764483 0.5669848884710259
-0.7045915352803054 -0.4969903090563754 0.5065090335970232
-0.6649208193762486 -0.6037874768826924 0.4396828251360862
-0.6217094515217826 -0.6890745115687564 0.3723622905112223
-0.5778015569641659 -0.7555404444822033 0.3087134553617966
-0.5351313698599168 -0.8065492308067735 0.2512225214363761
-0.494851477784128 -0.8454034758024775 0.2010347682266778
-0.4575375959326869 -0.8749732761570181 0.1583701812816777
-0.4233830503293118 -0.8975779410687307 0.122884630449318
-0.3923500210651493 -0.9150068323008461 0.09393592397452356
-0.3642751223256089 -0.9285992769324202 0.07076028642712534
-0.338940100264406 -0.9393374924105758 0.05258026040792703
-0.3161233854511175 -0.9479298322897499 0.03866572417594743
-0.2956533515991443 -0.9548740924464227 0.02836482439241845
-0.2775024627504359 -0.9604928305092602 0.02111647953026655
-0.2620398589614957 -0.9649167527690179 0.01645516761182712
-0.2508978864555434 -0.9679116076037154 0.01404885896193116
0 0 0
-0.1264567417196367 0.9917962640509234 0.01867787697474767
-0.1564363706274185 0.9875026867733572 0.01913388513400893
-0.1707602267292445 0.9850709637702102 0.02182066232280232
-0.1821337815875797 0.9828957509623152 0.02726221459884831
-0.1934876309030708 0.9804495139140923 0.03579507442563171
-0.205746650424663 0.9774319202269511 0.04790779853516756
-0.2194236322303795 0.9735123005272397 0.06424227845420917
-0.2349825682721755 0.968225160427763 0.08557588049704488
-0.2529268114040945 0.9608870092357679 0.1128015228394492