# OOMMF: rectangular mesh v1.0
# Segment count: 1
# Begin: Segment
# Begin: Header
# Title: 
# Desc: time = 3.38e-09
# Desc: stepsize = 2.9600956101183565e-14
# Desc: step = 21630
# meshunit: m
# valueunit: (none)
# valuemultiplier: 384000.0000000001
# xmin: 0
# ymin: 0
# zmin: 0
# xmax: 9.357999999999999e-08
# ymax: 9.357999999999999e-08
# zmax: 2.3395e-08
# ValueRangeMaxMag: 1
# ValueRangeMinMag: 0
# meshtype: rectangular
# xbase: 1.16975e-09
# ybase: 1.16975e-09
# zbase: 1.16975e-09
# xstepsize: 2.3395e-09
# ystepsize: 2.3395e-09
# zstepsize: 2.3395e-09
# xnodes: 40
# ynodes: 40
# znodes: 10
# End: Header
# Begin: Data Text
0 0 0
0 0 0
0 0 0
0 0 0
0 0 0
0 0 0
0 0 0
0 0 0
0 0 0
0 0 0
0 0 0
0 0 0
0 0 0
0 0 0
0 0 0
0 0 0
-0.986255862481626 0.1646334971502967 0.01397087458560579
-0.9909601090035192 0.1333177126528777 0.01498165066797321
-0.9957286180891106 0.09099540159392952 0.01563189070806305
-0.9988871139385781 0.0444017161134587 0.01590664055158459
-0.9998665790776082 -0.003398518501920111 0.01597730001071627
-0.9986132846947686 -0.05012995871118096 0.01607777567761241
-0.9955618337616212 -0.09265593762381018 0.01647763272591268
-0.9921200666672536 -0.1240843470067835 0.01734497460544867
0 0 0
0 0 0
0 0 0
0 0 0
0 0 0
0 0 0
0 0 0
0 0 0
0 0 0
0 0 0
0 0 0
0 0 0
0 0 0
0 0 0
0 0 0
0 0 0
0 0 0
0 0 0
0 0 0
0 0 0
0 0 0
0 0 0
0 0 0
0 0 0
0 0 0
0 0 0
0 0 0
0 0 0
-0.9267998792031654 0.3752191189242851 0.01589329112174574
-0.9381699640164135 0.3457525407681378 0.0170967590442785
-0.9523646939868436 0.3044551508985451 0.01756561239151382
-0.9666525173471413 0.2555174120603808 0.01713951108985663
-0.9805444775745965 0.1956171142674421 0.01632397327979557
-0.9890973854282683 0.1462995885370217 0.01681643639007062
-0.9951172215322227 0.09715817783518672 0.0173782591111611
-0.9987427305392784 0.04689956611988474 0.01770279335901676
-0.9998337444131519 -0.003909725548849679 0.01781004151897996
-0.9983599971102307 -0.05440266536405909 0.01782319195165781
-0.9944184712254496 -0.1039856495796439 0.01785745690568887
-0.9879215836318124 -0.1539280777585177 0.0178070624185658
-0.9765476528571084 -0.2146435861846242 0.01681703330184794
-0.9642203508444469 -0.2646617334467898 0.01527356757117737
-0.9515873938081139 -0.3070398968754836 0.01441990541484898
-0.9412977629210828 -0.3372567792966175 0.01471007607854737
0 0 0
0 0 0
0 0 0
0 0 0
0 0 0
0 0 0
0 0 0
0 0 0
0 0 0
0 0 0
0 0 0
0 0 0
0 0 0
0 0 0
0 0 0
0 0 0
0 0 0
0 0 0
0 0 0
0 0 0
0 0 0
0 0 0
-0.8771648707660155 0.4799641647419591 0.01470340292558842
-0.8923310703461212 0.451106114900351 0.01576496097223871
-0.9143191076396415 0.4046517763121339 0.01665861136120445
-0.9319122859014235 0.3622364830386562 0.0180061584400536
-0.9483487762897939 0.3166584207864254 0.01902742900911539
-0.9635462836115886 0.2668238291526741 0.0195857993097031
-0.9769585240591168 0.2124903196097612 0.01999765837224796
-0.9870806016867611 0.1588819464750404 0.02069813658287392
-0.9942370857671462 0.105055163267737 0.0213548579026107
-0.9984795843938199 0.05065001296161112 0.02175076402640736
-0.9997530225060114 -0.004129825583923162 0.0218366327701917
-0.9980290202310258 -0.05890269904858949 0.02164594237933005
-0.9933172608344645 -0.1134509026402281 0.02120641455864642
-0.9855561723173667 -0.168111113882485 0.02043733339578939
-0.9744524298728654 -0.2237768792728149 0.01914079982099985
-0.961246112740667 -0.2751297930139667 0.01759283197919393
-0.9464979742008706 -0.3222917050357907 0.01642077034643953
-0.9303763550033335 -0.3662613421915566 0.01588921856952004
-0.9100480598271814 -0.4142090518965886 0.01560096573008881
-0.895876213750763 -0.4440250550754876 0.01573404273563676
0 0 0
0 0 0
0 0 0
0 0 0
0 0 0
0 0 0
0 0 0
0 0 0
0 0 0
0 0 0
0 0 0
0 0 0
0 0 0
0 0 0
0 0 0
0 0 0
0 0 0
0 0 0
0 0 0
-0.8395417868092959 0.5430889937652464 0.01496439280781002
-0.8609140510391773 0.5085075794283713 0.01571745485792471
-0.8818063584710187 0.4712964641611299 0.01723917136341703
-0.9035686538088642 0.4280219949806142 0.01899630666344144
-0.92368188802857 0.3825872343711126 0.02094702423350227
-0.942218390742577 0.3342237732690009 0.02278099050303613
-0.95894415306548 0.2825468312915703 0.0243597912269716
-0.9733884185973093 0.2277115019102071 0.02573826797642829
-0.9848551107123289 0.1712673146403105 0.02697995255189789
-0.9931280552641082 0.1136484552466987 0.02794091028167741
-0.9980712990701172 0.05516035085375021 0.02847837190183647
-0.9995858034833125 -0.003804501246977923 0.02852625536031036
-0.9976308615754537 -0.06280245299107684 0.02808052582343903
-0.9922296535305049 -0.1214195086897432 0.02715911567549876
-0.9834561226376101 -0.1793039398028895 0.02577114700123349
-0.9714719795432737 -0.2359413372674104 0.02395575777843019
-0.9568749057829656 -0.2896706201107102 0.02193961092446049
-0.940128897329345 -0.3402276623650303 0.02006973263240249
-0.9215165943701029 -0.3878957895177578 0.01854785095157859
-0.9010734192309425 -0.4333183064928847 0.01737637515697857
-0.8812388509200679 -0.4723766173003885 0.01668589395027989
-0.8609986595275475 -0.5083411872318999 0.01644827211070724
0 0 0
0 0 0
0 0 0
0 0 0
0 0 0
0 0 0
0 0 0
0 0 0
0 0 0
0 0 0
0 0 0
0 0 0
0 0 0
0 0 0
0 0 0
0 0 0
-0.7655103367265675 0.6432296160519486 0.015798272008019
-0.7860850063840076 0.6178976696288923 0.01651764527523104
-0.8173788705559925 0.5758561575833021 0.0167770003875684
-0.84336894198857 0.537024940713683 0.0182494038407983
-0.8677045351533379 0.4966559744155087 0.02053491542983404
-0.8913627510958289 0.4526935914862504 0.02325850782304224
-0.9137204974538413 0.4054981021185907 0.02619430684185254
-0.9344275713345052 0.3549621235390994 0.02910334658610203
-0.9530806025391019 0.3010407556140844 0.03180925216038399
-0.9691814913951493 0.2439610577864702 0.03420875649274822
-0.9821807900187962 0.1844181339892899 0.03620562903694698
-0.9916904031297106 0.123012654495959 0.03765675469672141
-0.9974383152761783 0.06033115364815107 0.03843122582616017
-0.9992558379739278 -0.00300505513622112 0.03845438750846369
-0.9970835964651629 -0.06634687704001641 0.03771463332888764
-0.9909765810339307 -0.1290397447973433 0.03625134624999732
-0.9811068188167681 -0.1904296482906513 0.03414614360567819
-0.9677798280241887 -0.2498150450491161 0.03153803634627939
-0.9514789758471673 -0.3063768065692344 0.02865328807070329
-0.9326883622837444 -0.3597622120042113 0.02575984616224692
-0.9118422349540815 -0.4098924062136824 0.02306412543979166
-0.8893581565669301 -0.4567433262444732 0.02067857052617582
-0.8659301888635125 -0.4998165829029875 0.01866256868659334
-0.8407923160472287 -0.5410939840235038 0.0168991635742275
-0.8106364663460789 -0.5853583972426867 0.01496884121817063
-0.7906524390894751 -0.6121020987582666 0.0141329847374249
0 0 0
0 0 0
0 0 0
0 0 0
0 0 0
0 0 0
0 0 0
0 0 0
0 0 0
0 0 0
0 0 0
0 0 0
0 0 0
-0.7182939948015696 0.695585151908684 0.01466401978227768
-0.7435109755576373 0.6685361159458325 0.01583953602193295
-0.7690721616563611 0.6389229554992139 0.01747761715340446
-0.7972771140656399 0.6033002382039282 0.01944288996645127
-0.8246382209270693 0.5652245219163762 0.02220460336599452
-0.8512315912294974 0.5241600526377129 0.02571025693623206
-0.8770924106401652 0.479400619539426 0.02973128289593095
-0.9018049473971488 0.4308019271164875 0.03402258724355595
-0.9248903826160232 0.3782970442020192 0.03832918590840238
-0.9458121530297715 0.3219327614833836 0.04241070931816856
-0.9639800718859025 0.2619577530024044 0.04604950215562416
-0.978794868773833 0.1988866560510354 0.04903777020676382
-0.9897439916391011 0.1333714348012224 0.05117510521104611
-0.9964369077480245 0.06616821493788193 0.05229967695395777
-0.9986286405563906 -0.001887573937578713 0.05231897672092386
-0.9962368015227616 -0.06991713910821704 0.05122332428317454
-0.9893487744557447 -0.1370391255878309 0.04908442259045444
-0.9782179761404221 -0.2024084438173243 0.04604794270306981
-0.9632505733115173 -0.2652485085421949 0.04232684409654932
-0.9449777317131318 -0.3248979426268289 0.03818917966070066
-0.9239707979126839 -0.3809559731331332 0.03391918540862564
-0.9007936192353363 -0.433226254857086 0.0297635288130683
-0.8759916819163452 -0.4816301809322278 0.02590254868852303
-0.8500796604249468 -0.5261755035084154 0.02244794956053016
-0.8231740515276517 -0.5674563435591895 0.01943653894050501
-0.7953558322864693 -0.605906140624795 0.01693661126267727
-0.7700604263633007 -0.637784148411031 0.01543760942590309
-0.7453509918932446 -0.6665021395621188 0.01505977565813712
0 0 0
0 0 0
0 0 0
0 0 0
0 0 0
0 0 0
0 0 0
0 0 0
0 0 0
0 0 0
0 0 0
-0.664725766062101 0.7469570394255909 0.0139584091395954
-0.6916741198157095 0.7220521517422698 0.01508648870747726
-0.7185173175432835 0.6952983582141489 0.01711892096810556
-0.7460203846589869 0.6656249511319901 0.01992511239096037
-0.774640443192933 0.6319666722743653 0.0234586637368909
-0.8034430069984005 0.5947313576557202 0.02781989802913229
-0.8320897498995978 0.5536608269160657 0.03295962455250744
-0.8602791009807936 0.5083527286823593 0.0386958868211613
-0.887532568389611 0.4585643132089131 0.04477399578971508
-0.9132614786063861 0.4041821917925796 0.05089427798311884
-0.9367949437219185 0.3452485430861124 0.05673338447478173
-0.9574067812969431 0.2820161773051234 0.0619607203382261
-0.9743663590896361 0.2149900245495015 0.06625320836465386
-0.9870147095423453 0.1449029567817929 0.06931880165534365
-0.994829812440818 0.07267949751534743 0.07093190339954542
-0.9974785036075333 -0.0006174436369079522 0.07096656680600232
-0.9948501301809631 -0.07385596784081724 0.06941552054991711
-0.9870672194756934 -0.1459124925780306 0.06639163159757883
-0.9744715094655961 -0.2157477033343154 0.06211445681811995
-0.9575871852516826 -0.2824725812312762 0.05688605711682833
-0.9370648651700336 -0.3454020258832115 0.05105760452312009
-0.9136093049520991 -0.4040968059411472 0.04498676842255654
-0.887924019499574 -0.458334244139627 0.03899559263142501
-0.8606760602124571 -0.5080598954257389 0.03334459532141992
-0.8324595252551129 -0.5533663509759661 0.02822800771530367
-0.8037228254251485 -0.5945280923230536 0.0237900678714167
-0.7749562636889792 -0.6316925475795587 0.02018203908587269
-0.7472188717337305 -0.66434443159478 0.01761913544924404
-0.7202841795332531 -0.693490806116102 0.01616176186393171
-0.6936773660102977 -0.720115305627509 0.0156734962919607
0 0 0
0 0 0
0 0 0
0 0 0
0 0 0
0 0 0
0 0 0
0 0 0
0 0 0
-0.6104019505454492 0.7919859677065512 0.01294935234781302
-0.6360343190956346 0.771528723739365 0.01427492128378208
-0.6625267202562267 0.7488574474695381 0.01645807752852325
-0.6900921019270891 0.7234548711216706 0.01964536352878623
-0.7187675493631798 0.6948410551692009 0.02385619487260685
-0.7485133585319618 0.6624813849028581 0.0290889456046993
-0.7789339021562266 0.6261093244297559 0.03534246643611962
-0.8096749708685914 0.5853353934267252 0.04253138548090733
-0.8403258080218606 0.5397277467802416 0.05046281529928281
-0.8703313533701433 0.4889379605657172 0.05884731139764107
-0.8989951297832051 0.4327545310379072 0.0673147271571298
-0.9255009641536737 0.3711572749721204 0.07543369662087086
-0.9489508301835967 0.3043795347351664 0.08273705776896789
-0.9684281567324327 0.2329574787716879 0.08875651149161375
-0.9830852529353895 0.1577390229770126 0.09306871703863714
-0.9922360410969601 0.07985201853402221 0.09534827677663212
-0.9954373929477316 0.0006311131503980894 0.09541487524287968
-0.9925431302838058 -0.07848837737315632 0.09326150944388774
-0.9837195179114675 -0.1560924170901423 0.08905654050650218
-0.9694194021612288 -0.2309049822211895 0.08311986464616716
-0.9503213497652493 -0.3018801889854898 0.07587940220138326
-0.9272472210633883 -0.3682573387821376 0.06781683760926187
-0.9010750019259696 -0.4295742479844165 0.05941217360723388
-0.8726671811164726 -0.4856346555496022 0.05109767442308748
-0.8428201168181227 -0.5364563468069434 0.04323006658835587
-0.8122284599619978 -0.5822223670103656 0.03608384930419229
-0.7814686024985319 -0.6232294714075717 0.02986384566712057
-0.7510703894609089 -0.6597587520295346 0.02473174469116343
-0.7216087603269264 -0.6919879675540139 0.0208194567628545
-0.6933382294672973 -0.7203828377329404 0.018184242051534
-0.6664614656927452 -0.7453497361604852 0.01681920188868647
-0.6410280019421549 -0.7673354138260249 0.01671715928294338
0 0 0
0 0 0
0 0 0
0 0 0
0 0 0
0 0 0
0 0 0
0 0 0
-0.583707238438963 0.8118480044143999 0.01373599367775293
-0.6041883412613404 0.7966869517413274 0.01569551556915175
-0.629880726612506 0.776461487550353 0.01891635782050926
-0.65783869555187 0.7527944423331555 0.02342601602762675
-0.6874064611705774 0.7256830036560349 0.02926662511630173
-0.7183564394501734 0.6947195802753596 0.03645175829088028
-0.7504242250890623 0.6594260545427664 0.04495287520993842
-0.7832855263108784 0.619254580217704 0.05465847739632474
-0.8164979077824525 0.5736385198957838 0.06534535238753736
-0.8494473685343464 0.5220740291954395 0.07666730808964689
-0.8813331422021585 0.4641985197078872 0.08815683046182737
-0.9111810909603367 0.3998754169752622 0.09924046742730551
-0.9378871447397156 0.3292831242982905 0.1092718069052549
-0.9602968912351059 0.2529892450048555 0.1175853842791015
-0.9773189346093698 0.1719829780933931 0.1235700420819423
-0.9880547350209532 0.08764644180739616 0.1267514964060623
-0.9919185144794328 0.00165777424513672 0.1268657259367821
-0.9887186857034451 -0.08416247250446879 0.1239033444374529
-0.978680108738295 -0.1680320898374864 0.1181120719691472
-0.9624024452291913 -0.248376845977971 0.1099566996544913
-0.9407675333294074 -0.3239550144764445 0.1000479726374699
-0.9148207745080931 -0.3939181619832717 0.08905858851415213
-0.8856540054396873 -0.4578081391705153 0.0776446415270735
-0.8543113305314973 -0.5155046262938204 0.06638622443828707
-0.8217258688706461 -0.5671491037434668 0.05575383889709507
-0.7886858967678008 -0.6130655324913442 0.04609999035437906
-0.7558316356337249 -0.6536814949226964 0.03767017083683111
-0.723694089559635 -0.6894411065673542 0.03062393364074059
-0.6927476508000984 -0.7207447860165332 0.02505285893717
-0.663439735991856 -0.7479352728037025 0.02098914965182629
-0.6366544055229917 -0.7709288117685844 0.01843732934142085
-0.6155602026329875 -0.7878975790117523 0.01740809931767777
0 0 0
0 0 0
0 0 0
0 0 0
0 0 0
0 0 0
0 0 0
-0.5069024597564761 0.8618707918806963 0.01512066122148015
-0.5395432655195902 0.8418136190002018 0.01558510501213929
-0.5657933527088882 0.8243484483941984 0.01809744900565601
-0.5927390920168131 0.8050829712551972 0.0224004060228034
-0.6213009732990009 0.7830570576506654 0.02840325758070728
-0.6516042360751074 0.7576985146761022 0.0361231281397874
-0.6836219803574031 0.7284114654224955 0.04558206898851865
-0.7172147704934906 0.6945372665852498 0.05675348720791033
-0.7521189804195435 0.655350666434988 0.0695164965737109
-0.7879024781956432 0.6100966143787233 0.08361701965977136
-0.8239157013499542 0.5580619804232357 0.0986394600304998
-0.8592622283234082 0.4986722462918746 0.1139930425723705
-0.8928000472018072 0.4316106447058881 0.1289198475527251
-0.9231854682877001 0.3569493121927281 0.1425334335079226
-0.9489703396134676 0.2752667004169322 0.1538945683754763
-0.96875188415725 0.1877133930127995 0.1621217722127399
-0.9813546449345635 0.09598997059920239 0.1665202282298464
-0.986005306898276 0.002218561437387853 0.1666991684249934
-0.9824537329474977 -0.09127772846277517 0.1626439021426942
-0.9710049429950195 -0.1822397708804517 0.1547193154996448
-0.9524542902379548 -0.2687169950377906 0.1436036266435249
-0.9279487989852326 -0.3492361221679206 0.1301735665754648
-0.8988166032545638 -0.4228682180187457 0.1153741041290379
-0.8664068028269779 -0.489201913116294 0.1001036473785624
-0.8319679832914565 -0.5482531337222261 0.08513387188249467
-0.7965746259862579 -0.6003482464622774 0.07106931971337016
-0.7610973069880757 -0.6460086587703679 0.0583412554647987
-0.7262086227956102 -0.685850463701359 0.04722475640946699
-0.6924157640907195 -0.7205043592115382 0.03786658151768264
-0.6600973524064939 -0.7505682230026552 0.03031217518708939
-0.629516505363764 -0.7766000053105429 0.0245234831591761
-0.6007893344860983 -0.79914758734657 0.02037913653487162
-0.5732750142891843 -0.8191737437997367 0.01761066327138387
-0.5403760992683668 -0.8412769143479752 0.01571065640426904
0 0 0
0 0 0
0 0 0
0 0 0
0 0 0
-0.4427763098327857 0.8965173091804002 0.0143476057513069
-0.4710326098248712 0.8819829593431822 0.01530816480878543
-0.4983555040947454 0.8668008433172957 0.01726527042639786
-0.5245814826885238 0.8511012426905271 0.02099863593069539
-0.5516217405798688 0.8336670268395541 0.02669725978698201
-0.5803100470449281 0.8136668419671088 0.03444589354313247
-0.6109714064924219 0.7904103116646201 0.04433373053228542
-0.6437245977370257 0.7631736520306742 0.05643242963462574
-0.6785461391758569 0.7311425844042909 0.07075067688830033
-0.7152558610468355 0.693403335182734 0.0871829570249253
-0.7534670453543869 0.6489732092088522 0.1054570305579147
-0.7925252112146834 0.5968729579302601 0.1250858172643988
-0.8314573000086188 0.5362434484576334 0.1453331422926051
-0.868952505497833 0.4665060824129003 0.165207803268507
-0.9033984970752902 0.387553255985484 0.183503758155402
-0.9329943866492257 0.2999330062841085 0.1989011468604724
-0.9559460898995565 0.204970437153103 0.2101289915718777
-0.9707198206337987 0.1047630199475958 0.2161659998245435
-0.9762960080740711 0.002011413098261969 0.21643026321654
-0.9723488088692762 -0.1002983361204005 0.2108981689393676
-0.9592922462698252 -0.1992846211387402 0.2001100347913148
-0.9381803134212522 -0.292524191832 0.1850602515448298
-0.9105005463437792 -0.3782803115961043 0.1670112599989388
-0.8779300349053067 -0.4555703189110498 0.1472906593727202
-0.8421186520122957 -0.5240953765550739 0.1271228233111148
-0.8045372930476368 -0.5840880236539124 0.1075217406836729
-0.7663986007287246 -0.636135376703842 0.08924666552265638
-0.7286377968613504 -0.6810184989551523 0.07280635319742167
-0.691934279208526 -0.7195870962606846 0.05849242815350494
-0.6567540137265484 -0.7526745448294957 0.04642407801754909
-0.6233906445569072 -0.7810539146178053 0.03659080129110632
-0.5919800137652301 -0.8054348652323476 0.0288849644394296
-0.5624440559800649 -0.8265120257511556 0.02312044942067113
-0.5342046443363458 -0.8451406390748052 0.01904463582501386
-0.5056168402019832 -0.8626019612589939 0.01641546028287807
-0.4769678235525434 -0.8787870771781408 0.01532867509766289
0 0 0
0 0 0
0 0 0
0 0 0
-0.413054642070232 0.9105958146464189 0.01418185504990232
-0.4320802739067488 0.9016943051376969 0.01593791024301121
-0.4553856422513422 0.8900874157126156 0.01919138403997001
-0.4801277032080595 0.8768610532463872 0.02433273333986902
-0.5063892628490084 0.8617236736694548 0.03165793279505707
-0.5345949352788064 0.8440940583304497 0.04139415255177206
-0.5650763980475362 0.8232864993087305 0.05374015654608019
-0.5980486333739389 0.7984964961246342 0.06885621102155727
-0.6336024085245782 0.768771528053631 0.08682353117639306
-0.671665492966692 0.7330012130432615 0.1075857204043209
-0.7119351667933511 0.6899414325151232 0.1308783327442022
-0.7537939311913048 0.6382872536811979 0.1561540620261656
-0.7962274428763015 0.5768095222929815 0.1825174901285018
-0.8377725380816334 0.5045636620689108 0.2086928013992519
-0.8765326877703067 0.4211594461744458 0.2330561481021154
-0.9102995353620514 0.3270455801464433 0.2537635600836118
-0.9368003256229226 0.2237226570401992 0.2689857294349624
-0.9540461130031901 0.1137779800415193 0.2772193815756311
-0.9606979409216496 0.0006663806023714957 0.2775950688427204
-0.956332290597651 -0.1117492115176413 0.2700752926230658
-0.9415079318530114 -0.2197747711310692 0.2554640174900385
-0.9176133736212436 -0.320399154220791 0.2352234650838239
-0.8865620701932733 -0.4115996492969204 0.2111715520454143
-0.8504476401638469 -0.4923944560900402 0.185166171185605
-0.8112566744666072 -0.5626951763845317 0.158860777434083
-0.7706872330123056 -0.6230579122194825 0.1335665635274597
-0.7300728362459263 -0.6744232822739508 0.1102129307416289
-0.6903847018775277 -0.7179003560733307 0.08937584776247776
-0.6522788748726597 -0.754614295921434 0.07134096849535351
-0.6161598771170715 -0.7856152171531431 0.056175941545243
-0.5822394679834332 -0.8118368546324595 0.04379638549975658
-0.5505757888692507 -0.834091726287972 0.03401900717175672
-0.5210875612084086 -0.8530885140832724 0.02660339626940325
-0.4935866276680129 -0.8694358927545578 0.0212948204360268
-0.4682120934404723 -0.8834348850959639 0.0178952326492483
-0.4479948060278952 -0.8938866131526813 0.0163516543033654
0 0 0
0 0 0
0 0 0
-0.3363742457333281 0.9416354089764408 0.01323341864768033
-0.3652682908632184 0.9307906459260801 0.01441697424473103
-0.3867964086737555 0.9220077031814765 0.01703917577533425
-0.4086660113820065 0.9124311879606826 0.02148065124195946
-0.4318476660247883 0.901509806075581 0.02806533268127162
-0.4567765292868369 0.8888057758651765 0.03714155464398723
-0.4838699298510901 0.8737644320867071 0.04904699997037994
-0.5135054672429032 0.8556887422953519 0.06410079110780235
-0.5459953285840771 0.8337081890755711 0.08258181780935077
-0.5815550988200363 0.8067435696663734 0.1046827580758868
-0.6202478517933475 0.7734844637743328 0.1304392067036194
-0.6618979548694968 0.7323985348164679 0.159635470802287
-0.7059789049286674 0.6817972690108191 0.1916931656713609
-0.7514911117144069 0.6199871909003406 0.2255592874029992
-0.7968624132516169 0.5455309499026874 0.2596271885706122
-0.8399238906061042 0.4576179990587757 0.2917423948049834
-0.8780247761912627 0.3564917229209771 0.3193526951242396
-0.908332268186186 0.2438078973013564 0.3398384907352746
-0.9282985140299277 0.1227482066237119 0.3509910919389406
-0.9361808808348859 -0.002255577516191918 0.3515114091025845
-0.9314308844692488 -0.1261858111422372 0.3413409564104603
-0.9147911615584097 -0.2442955997286196 0.3216780854951872
-0.8880663060191494 -0.3528552939486171 0.2946716437764866
-0.8536799207611658 -0.449554028067748 0.2629292086042767
-0.8141973962869743 -0.5335055204817422 0.2290293856582961
-0.7719572171558339 -0.6049702253596493 0.1951744893917116
-0.7288664289082587 -0.6649637137642493 0.1630245018007384
-0.6863424731943838 -0.7148870516738738 0.1336806374852099
-0.6453507149237366 -0.7562475793770882 0.1077592382754998
-0.6064870469482821 -0.7904826641311921 0.08550216132943299
-0.5700692604021587 -0.8188693498986449 0.06688816144210895
-0.5362162904768046 -0.8424941117621997 0.05172776308053717
-0.5049065187062423 -0.8622588831245565 0.03973695812131112
-0.4760170727744459 -0.8789037640058232 0.03059281032601382
-0.4493601994074676 -0.89302885194971 0.02397667145087925
-0.4247165355029734 -0.9051141704606764 0.01960109439883777
-0.4013395074397934 -0.9157683161203702 0.01717530081380896
-0.3718239053409247 -0.9281595448636197 0.01633532049212939
0 0 0
0 0 0
-0.3062678221582371 0.951857715442596 0.0129193909628809
-0.3214511176203136 0.9468089554092024 0.01489902471927259
-0.3392886255773045 0.9405006004746895 0.0184891606248396
-0.3586984562648822 0.9331429077555223 0.02407760741349587
-0.3797401175139028 0.9245365052502088 0.03208883934107672
-0.4026991125625621 0.9143237654354835 0.04295901187414802
-0.4279624919794757 0.9019886711198387 0.0571361761949828
-0.4559485759343888 0.8868344416286708 0.075070428562557
-0.4870617073214411 0.8679434066852727 0.09718608981065921
-0.5216471018861955 0.8441273294980889 0.1238279156255053
-0.5599240393903557 0.81388317295736 0.155174904187651
-0.601884566524743 0.7753768313800232 0.1911170791384085
-0.6471540592469552 0.7264888161975569 0.2310965675644272
-0.6948240606762376 0.6649679856311581 0.2739290104954624
-0.7432915693530304 0.5887420821140242 0.3176482389007566
-0.7901721731666512 0.4964085083942713 0.3594530978401297
-0.8323830371287886 0.3878551274289337 0.3958621977751077
-0.8664834329213604 0.2648397452364927 0.4231623445155334
-0.8892781633086837 0.1312463339747047 0.4381309713778905
-0.8985374983607185 -0.007246615232893542 0.4388369294024008
-0.8935558337561197 -0.1441208981645372 0.4251907085916297
-0.8752917230281149 -0.2732870224015916 0.3989719325784021
-0.8460335044164536 -0.3901618888432804 0.3633194323168766
-0.8087730453521278 -0.4921806535839598 0.3219384496289789
-0.7665660172648091 -0.578699302528394 0.2783588662642489
-0.7220786973138609 -0.6505091344291727 0.2354574715521373
-0.6773759432973084 -0.7092447452573549 0.1952785773373789
-0.6339004157036905 -0.7568791845379363 0.159072822895291
-0.5925597890251797 -0.7953804752287248 0.12744722851189
-0.5538519979497727 -0.8265221451393906 0.1005440598007893
-0.5179862216848665 -0.8518066821895304 0.07820262349755183
-0.4849810811481607 -0.8724579830862185 0.06008675958552008
-0.4547375831765487 -0.8894482242979179 0.04577757901015877
-0.4270957081241614 -0.9035350205339984 0.03483852423033212
-0.4018944060378943 -0.9152919549627248 0.0268611908887343
-0.3790599754428221 -0.9251223907434073 0.02149644534543014
-0.3587514568803497 -0.9332504452418332 0.01846614854662358
-0.3422713379528891 -0.9394382096701374 0.01749804068190325
0 0 0
0 0 0
-0.264058820072729 0.9644087409159754 0.01373753932334242
-0.2744703493849432 0.9614620994965083 0.01602056616580156
-0.2889214083228666 0.9571378273950898 0.0202879072882832
-0.3055109113011975 0.9518092706764563 0.02687369215912716
-0.3238879152976199 0.9454015775132097 0.03622810455565739
-0.3442172373221291 0.9376180027536123 0.04885667244755308
-0.366863136844588 0.9279792756291793 0.06531387928528107
-0.3922762710913519 0.9158005464569926 0.08618982682275851
-0.4209386408472583 0.9001383933775267 0.112078246816172
-0.4533153853885441 0.8797206067926899 0.1435159062763999
-0.4897859960517468 0.8528725695574875 0.1808813372573472
-0.5305361487047444 0.817464186489583 0.2242402700775685
-0.5753983867532946 0.7709193414274734 0.2731301256447846
-0.6236432750685952 0.7103531551363241 0.3262935188593012
-0.6737509588312126 0.6329190639707603 0.3814093652971799
-0.7232403075494868 0.5364303225266065 0.4349321402353751
-0.7686864840728834 0.4202276690030319 0.4822134334586152
-0.8060724393165483 0.2860756154477471 0.5180810407846069
-0.8315267606162375 0.1386560479047808 0.5379012425701325
-0.8422779533177169 -0.01480374455093992 0.538840141880862
-0.8374289431192018 -0.1658851321270406 0.5207637546579549
-0.8181565545770693 -0.3068354811178921 0.48628370292426
-0.7872467264389134 -0.432101550139479 0.4399214044329657
-0.7482474838949569 -0.538952643144194 0.386853656170848
-0.7046508193099047 -0.6271900008067484 0.3318130885512363
-0.6593670014772939 -0.6983515238833 0.2784606012575464
-0.614529214900582 -0.7548566201268943 0.2292276752145671
-0.5715301009677054 -0.7993485977461307 0.1854593296901996
-0.5311679163239206 -0.8342970292273563 0.147679083456363
-0.4938147995193476 -0.8618141843046464 0.1158587739749685
-0.4595629644288264 -0.8836099581392125 0.0896399665473358
-0.4283356347037448 -0.901019987545179 0.06849500775257417
-0.3999669817142382 -0.9150625696270387 0.05183538565461374
-0.3742658062360769 -0.9264975782877483 0.03908124498267959
-0.3510890428359006 -0.9358707467015571 0.02970571441390414
-0.3304773524478971 -0.9435271268225252 0.02326543507132822
-0.3130019751770562 -0.9495538596734309 0.01942243842958861
-0.3008478033110167 -0.9535040822457292 0.01790431187353214
0 0 0
0 0 0
-0.21425439220287 0.9766589528006424 0.01524287821017507
-0.2233308037793275 0.9745852663918546 0.01751886455214551
-0.2354129107587143 0.9716410336600689 0.02223652751896166
-0.2491827512118849 0.9680019809888235 0.02966683839219306
-0.2644882872524931 0.9635488973953947 0.04024261714105131
-0.2815556954533678 0.9579947043236303 0.05452097619861472
-0.3007723672721552 0.9508857436430632 0.07315931671278683
-0.3226164817343256 0.9415572927640825 0.09689411827421196
-0.3476228430935253 0.9290610763945828 0.126506423900579
-0.3763472471144612 0.912070513406562 0.1627578820323503
-0.4093071646589316 0.8887727228754229 0.2062781908769613
-0.4468789340373974 0.8567695546276536 0.2573813291144692
-0.4891331558684172 0.8130348420595163 0.315789647435535
-0.5355992073824362 0.754011972585217 0.3802623229422753
-0.5849777387342562 0.6759740110857728 0.4481742758369416
-0.6348778255129507 0.575771325846551 0.5151868855132588
-0.6817369359489395 0.451988964619717 0.5752744788576553
-0.7211342596640368 0.3062633575799977 0.6214242796533037
-0.7486230258358977 0.1441349676406654 0.647138838497218
-0.7609139170832976 -0.02532746843118498 0.6483583346667331
-0.7568884521894828 -0.1914018677174677 0.6248881467722629
-0.7378757363248324 -0.3443709242584268 0.5804722769163765
-0.7070549471399566 -0.4776483234971684 0.5214646496026902
-0.6683855095826678 -0.5884891842822044 0.4549080023068208
-0.6256287878375125 -0.6773823590611706 0.386964803905585
-0.581781588900869 -0.7468299904504277 0.3221415033487514
-0.53892350048367 -0.8001754488274953 0.2632122940140595
-0.4983207349605054 -0.840792530683495 0.211528639799118
-0.4606273082109488 -0.8716572412543235 0.1674399495318743
-0.4260855310992544 -0.8951959055402254 0.1306729156783502
-0.3946855777634879 -0.9132905211121179 0.1006166922148449
-0.3662783853861431 -0.9273541171605106 0.07651461157432203
-0.3406517366314082 -0.9384245428872607 0.05758273731632337
-0.3175853940784893 -0.9472506700754886 0.04307766833926514
-0.2969066282260352 -0.9543590117106618 0.03233157716683617
-0.2785859394573455 -0.9600919050444139 0.02476707905377248
-0.2629916440850703 -0.9645927857790435 0.01990358672338296
-0.2517625950898632 -0.9676326419473392 0.01739729725070499
0 0 0
-0.124086528630015 0.9921464661776824 0.0157455728282132
-0.1537998231302704 0.9879692450166884 0.01619831183339739
-0.1679041514921987 0.9856246066306215 0.01877047457888963
-0.1790221801055728 0.9835524641337104 0.02399185959348516
-0.1900627649026039 0.9812439487792424 0.03219407370458467
-0.201938716560542 0.9784158077543275 0.04385500986577547
-0.2151510612137126 0.9747601766684335 0.05960384920403255
-0.2301508091083307 0.9698441268080793 0.08020582748562738
-0.2474278130678037 0.9630303796817947 0.1065456011781878