# OOMMF: rectangular mesh v1.0
# Segment count: 1
# Begin: Segment
# Begin: Header
# Title: 
# Desc: time = 7.399999999999999e-10
# Desc: stepsize = 3.2236543189368743e-14
# Desc: step = 4734
# meshunit: m
# valueunit: (none)
# valuemultiplier: 384000.0000000001
# xmin: 0
# ymin: 0
# zmin: 0
# xmax: 9.357999999999999e-08
# ymax: 9.357999999999999e-08
# zmax: 2.3395e-08
# ValueRangeMaxMag: 1
# ValueRangeMinMag: 0
# meshtype: rectangular
# xbase: 1.16975e-09
# ybase: 1.16975e-09
# zbase: 1.16975e-09
# xstepsize: 2.3395e-09
# ystepsize: 2.3395e-09
# zstepsize: 2.3395e-09
# xnodes: 40
# ynodes: 40
# znodes: 10
# End: Header
# Begin: Data Text
0 0 0
0 0 0
0 0 0
0 0 0
0 0 0
0 0 0
0 0 0
0 0 0
0 0 0
0 0 0
0 0 0
0 0 0
0 0 0
0 0 0
0 0 0
0 0 0
-0.9861627983990425 0.1654811567344178 -0.009945944882593023
-0.9906362853332953 0.1362530026190017 -0.008652713930076047
-0.9952723243439945 0.09682139948304515 -0.007656173786326895
-0.9985460783547355 0.05345032619717509 -0.006985129332632747
-0.9999389224326456 0.008958694083586018 -0.006472496006609527
-0.9993847712054965 -0.03457194909130062 -0.005904186528666921
-0.9972277631001647 -0.07423725394360171 -0.005061484876400922
-0.9946135543269885 -0.1035797113910149 -0.003888564926561719
0 0 0
0 0 0
0 0 0
0 0 0
0 0 0
0 0 0
0 0 0
0 0 0
0 0 0
0 0 0
0 0 0
0 0 0
0 0 0
0 0 0
0 0 0
0 0 0
0 0 0
0 0 0
0 0 0
0 0 0
0 0 0
0 0 0
0 0 0
0 0 0
0 0 0
0 0 0
0 0 0
0 0 0
-0.9321022851471514 0.3620824069590804 -0.009036625154138677
-0.942402356816622 0.3343919707939595 -0.007733546082332837
-0.9552260731270579 0.2957897164582987 -0.007182816702344428
-0.9681489912370324 0.250262605609025 -0.007493930910904994
-0.9808617912051081 0.194537785446645 -0.008074440378215581
-0.9888699075458802 0.1486007540110065 -0.007356755912882262
-0.9946733222565252 0.1028718255824031 -0.00650918524161359
-0.9984061503473832 0.05613613747827533 -0.005821770996665284
-0.9999467410855424 0.008873502555581749 -0.005270288872430099
-0.9992601248037943 -0.0381674052001728 -0.004738370752769801
-0.9964155373478776 -0.08449302838210555 -0.004123722415534351
-0.9913312776417519 -0.1313388212973885 -0.003523065339143163
-0.982092084618071 -0.1883660859825979 -0.003654446897613737
-0.9718945593530064 -0.2353768901383789 -0.004322625222064378
-0.9613259246722626 -0.2753782178971304 -0.00439359315587848
-0.9526577988750362 -0.3040236300941392 -0.003570796403097071
0 0 0
0 0 0
0 0 0
0 0 0
0 0 0
0 0 0
0 0 0
0 0 0
0 0 0
0 0 0
0 0 0
0 0 0
0 0 0
0 0 0
0 0 0
0 0 0
0 0 0
0 0 0
0 0 0
0 0 0
0 0 0
0 0 0
-0.8873282518105609 0.4610220031020484 -0.01035790493236681
-0.9009983838691051 0.4337236366211818 -0.009258471869421119
-0.9208210104855382 0.3898944210468232 -0.008426570177383574
-0.9367363642139936 0.3499620163678719 -0.007181299247414708
-0.9515927273947267 0.3072977357347463 -0.006275570234060971
-0.9653524385360579 0.2608848157329279 -0.005812257090158437
-0.9776018583666071 0.2103927817072676 -0.005429910094436194
-0.9870071264165162 0.1606083974520552 -0.004677079312255645
-0.9938508002094251 0.1106606073706995 -0.003849272584882675
-0.9981819087536494 0.06019125670308235 -0.003144781935853813
-0.9999530505800277 0.009333149462334803 -0.002605562666614568
-0.999130695856402 -0.04162947508766559 -0.002199863956375176
-0.9957052397982353 -0.09256047808318477 -0.001906130989783194
-0.9896038750800256 -0.1438085693612771 -0.001807153800603173
-0.9805674805000206 -0.1961708552170949 -0.002100416443096815
-0.9696099321841455 -0.2446421947964307 -0.002603062627239664
-0.9571970131485182 -0.2894240815896844 -0.00275300118454363
-0.9434558603687202 -0.3314901423936833 -0.002307603027559071
-0.926007514259898 -0.377501834716421 -0.001564710816681451
-0.9138147803998966 -0.4061304627790714 -0.0007709251229939136
0 0 0
0 0 0
0 0 0
0 0 0
0 0 0
0 0 0
0 0 0
0 0 0
0 0 0
0 0 0
0 0 0
0 0 0
0 0 0
0 0 0
0 0 0
0 0 0
0 0 0
0 0 0
0 0 0
-0.8534112267583667 0.5211417329715139 -0.01002856910163394
-0.8727014664894919 0.4881637750342387 -0.009395697494627989
-0.8915968093327132 0.4527574832365907 -0.008111162739871985
-0.911252777314159 0.4117929274111304 -0.006705279367966527
-0.9294186534507318 0.3689908481502225 -0.005169197153074468
-0.946151941554661 0.3237010095107108 -0.003762968786906789
-0.9612762730106434 0.2755744749643799 -0.002575984253161891
-0.9744271791112656 0.2246985222428372 -0.001498903314411477
-0.9850184841889875 0.1724482882465535 -0.0004167575583760345
-0.9928724828310029 0.1191801394888322 0.000572003865008484
-0.9978765333080228 0.06511983630543179 0.001353215694330019
-0.9999425472166764 0.01055437068640556 0.001872838817945113
-0.9990208772820781 -0.04419020122380561 0.002124351747200209
-0.9951045589176393 -0.09880516622970725 0.002110911568384501
-0.9882231861867407 -0.1530086120693707 0.001816291697580541
-0.9784822692577677 -0.2063271971090687 0.001239548822840679
-0.9663546537377165 -0.257212738686299 0.0005387550009413886
-0.9522076217585407 -0.3054515428840092 3.836871563072535e-06
-0.9362631275357032 -0.3512994688039003 -0.0001980786726412514
-0.9185698556407933 -0.3952586648873653 -9.02192275659486e-05
-0.9012591644804758 -0.4332802876248458 0.0003328598579804989
-0.8835516981026018 -0.4683325205395265 0.001023222899512918
0 0 0
0 0 0
0 0 0
0 0 0
0 0 0
0 0 0
0 0 0
0 0 0
0 0 0
0 0 0
0 0 0
0 0 0
0 0 0
0 0 0
0 0 0
0 0 0
-0.7868961176451117 0.6170221305009229 -0.008842539632467498
-0.8054792943611214 0.5925669563179153 -0.008216363893521268
-0.8336363304466715 0.5522517195080597 -0.008276887083836108
-0.8571528960494853 0.5150107010630238 -0.007272591323059747
-0.8791851754701628 0.4764472078358776 -0.00561118337733247
-0.9005628112913461 0.4347106623282235 -0.003641837061667407
-0.9207251975772198 0.3902086064314802 -0.00153427937192051
-0.9393740414787825 0.3428937440962144 0.000538939234082291
-0.9561897794090837 0.2927370694906922 0.002472630099461746
-0.9707848435464249 0.2399141890581075 0.004239036344884177
-0.982720004173265 0.1850069560258185 0.005815463847191382
-0.9916845534038684 0.1284952891112554 0.007120899970113653
-0.9974558251454618 0.07082948041058376 0.008066076379002791
-0.9998852261360067 0.01247694572482421 0.008594206206837833
-0.998900324106386 -0.04607243277244265 0.008687545026361532
-0.994509782636295 -0.1043093953319196 0.00835716974805875
-0.9868112798700343 -0.1616947028499508 0.007636818154862913
-0.9760135042116235 -0.217609890805868 0.006601137781074021
-0.9624784449438111 -0.2713043988472293 0.005400572625743983
-0.9465775152373118 -0.3224485705793521 0.004234026273965318
-0.9286556588010856 -0.3709286796072125 0.003253001932192204
-0.9090729265322893 -0.4166293836366881 0.002524071419610574
-0.8884552582949101 -0.4589586256675721 0.002057652414154447
-0.8662075310873331 -0.4996813588119401 0.001747210187563117
-0.8395984086296031 -0.5432061402980842 0.001265452130809272
-0.8219140602041428 -0.5696099606641293 0.001330545357735924
0 0 0
0 0 0
0 0 0
0 0 0
0 0 0
0 0 0
0 0 0
0 0 0
0 0 0
0 0 0
0 0 0
0 0 0
0 0 0
-0.7440458056785578 0.6680596900246202 -0.009596333484896599
-0.767006446041632 0.6415813557424714 -0.008629930140873194
-0.7903116222549021 0.6126606419709199 -0.007380888063408297
-0.815937815813724 0.5781078718195125 -0.006063766605214188
-0.8407944506625531 0.5413382626609059 -0.004192506926271045
-0.864906623615074 0.5019296092803625 -0.001788785743057256
-0.8882729792433629 0.4593148970395301 0.0009693831468279406
-0.9105212139185666 0.4134438738987428 0.00390923775941512
-0.9312508312404878 0.3643141235076993 0.00686357973046683
-0.9500358078777769 0.3119904756366331 0.009690555301252676
-0.9664188674494402 0.2566785055831393 0.01227670189208129
-0.9799350705729529 0.1987877284737004 0.0145153873337008
-0.9901836800453916 0.1388194924334564 0.01629197017804517
-0.9968509106988165 0.0773426347283889 0.0175036765340967
-0.999724250540273 0.01498102491467829 0.01808291387454939
-0.9987040074291508 -0.04760253014788517 0.01800846102457613
-0.9938114771836405 -0.1097235184985669 0.01730599047625959
-0.9851933383964691 -0.1706944199130391 0.01604683737596488
-0.9731209955298944 -0.2298468901881387 0.01435044005416643
-0.9579769498149647 -0.2865777300062973 0.01238419507492118
-0.9401921076141605 -0.3404877578678273 0.01033864218270183
-0.9202143032436856 -0.3913251538027902 0.008382130216131564
-0.8985083800441548 -0.43890624244979 0.00663334975967851
-0.8755499363319401 -0.483100092795919 0.005158423180495151
-0.8515128909800516 -0.5243186158566718 0.003973104697586705
-0.8265724059397234 -0.5628217245133635 0.003124764762336094
-0.8037779301086116 -0.594922011327198 0.002973131130055859
-0.7815528100086073 -0.6238282855628398 0.003670871746209134
0 0 0
0 0 0
0 0 0
0 0 0
0 0 0
0 0 0
0 0 0
0 0 0
0 0 0
0 0 0
0 0 0
-0.6953771604513365 0.7185771999749831 -0.009869771970446441
-0.7200028269405517 0.6939131898120665 -0.008967396637604241
-0.7446911527622201 0.6673682449140182 -0.007396801880410311
-0.7699867702987861 0.6380374011030304 -0.005352416139867565
-0.7962187099024474 0.6050018933058701 -0.002911202087567922
-0.822520458895584 0.5687355210713195 4.207055670314681e-05
-0.8485559307446726 0.5290941151870105 0.003499953216269889
-0.8740337576642306 0.4858096365547226 0.007347618247608476
-0.898532941047682 0.438757417365556 0.01142289625748792
-0.9215666413915883 0.3879089946723065 0.01554147118349571
-0.9426048944973446 0.3333395340005452 0.01951327604346562
-0.9610892814517032 0.2752661016143901 0.02315094772712965
-0.9764625576831609 0.2140810162031611 0.02627150441601692
-0.988218839756022 0.1503317951950261 0.02870324205907766
-0.9959457750527723 0.08469747005144482 0.03030431852750464
-0.9993585583329309 0.01795776023561546 0.03098371724059937
-0.9983241815042486 -0.04904512314160389 0.03071489084949347
-0.9928739710979363 -0.1154497316191977 0.0295404296730588
-0.9832027930326916 -0.1804223102236853 0.02756914482281975
-0.9696533782151863 -0.243205508674503 0.0249681129894185
-0.9526845984561767 -0.3031672229618078 0.02194745511485086
-0.932823726826065 -0.3598456669286006 0.01873474480852879
-0.9106300212222712 -0.4129302046932088 0.01554382516467727
-0.8866719706247268 -0.4622285459861691 0.01255339730809578
-0.8614981828957597 -0.507664092248294 0.009902035599751838
-0.8355706476224481 -0.5493290188279706 0.007702071494157009
-0.8094106498587385 -0.5872115392410079 0.006083426457195879
-0.784034099973631 -0.6206957098351028 0.005231239894682599
-0.7593671582633653 -0.6506414607482229 0.0052161773780411
-0.7352108593461323 -0.6778130118752259 0.005874796350157635
0 0 0
0 0 0
0 0 0
0 0 0
0 0 0
0 0 0
0 0 0
0 0 0
0 0 0
-0.6458641664187593 0.7633807936518643 -0.01045190985658915
-0.6693670711258649 0.7428737684836839 -0.009289143729670596
-0.6939163008083695 0.7200161581712953 -0.007543172056619311
-0.719556197459308 0.6944150478629659 -0.005159457275268366
-0.7461914803405115 0.6657278854718541 -0.002158048287054291
-0.7736906261366806 0.6335619309136137 0.001447316566572041
-0.8016382266733287 0.5977825399860189 0.005673484282531695
-0.8296747300205864 0.5581486820747386 0.0104828938513557
-0.8574120803866704 0.5143890177700283 0.01576270295942243
-0.8843657499203552 0.4663066602626748 0.02133820429365141
-0.9099636218192778 0.4138089539437149 0.02698808258380053
-0.9335647816885833 0.3569358477137277 0.03245918987944404
-0.9544841497442998 0.2958972967061118 0.03748063085002028
-0.9720312884438218 0.2311051840103155 0.04177999772380329
-0.9855649113936933 0.1631789117918505 0.0451048575651051
-0.9945510726819417 0.09292774350655349 0.04725037898238134
-0.9986158406291655 0.02131041782288011 0.04808605761256264
-0.9975839939653622 -0.05062420347787112 0.04757483585201782
-0.9914973481480971 -0.1218081952883533 0.04577960436575351
-0.9806094223574431 -0.1912287491120536 0.04285704489160134
-0.9653570718029262 -0.2579953812940945 0.03903981494569286
-0.9463140402528658 -0.3213905295777017 0.03461018228876092
-0.9241358172074192 -0.3808948626475006 0.02986795880398242
-0.8995106544457937 -0.4361772435943246 0.02509969539569326
-0.8731210617700627 -0.4870698396865779 0.02055681787653333
-0.8456107906188678 -0.5335464879167002 0.01644797922806957
-0.8175614340701249 -0.5756958513577177 0.01294558807905424
-0.7895404755642117 -0.6136136878479193 0.01020193763528428
-0.7621725234857439 -0.6473200885468579 0.008351491307564558
-0.7358342755187249 -0.6771205137465011 0.007465174847713734
-0.7109030164650079 -0.7032497301456183 0.007531150713321622
-0.68766389387341 -0.7259794582095634 0.008496782956347209
0 0 0
0 0 0
0 0 0
0 0 0
0 0 0
0 0 0
0 0 0
0 0 0
-0.6213907084240621 0.7834456462063613 -0.009300909876913196
-0.640655833748928 0.7677899690439319 -0.007659381109681841
-0.6648850610602466 0.7469277132033761 -0.005181392446670552
-0.6912525461598864 0.7226107809122486 -0.001891226285668324
-0.7190380707001226 0.6949671348499272 0.002221342460667854
-0.747931336478964 0.6637375040009028 0.007158330492602694
-0.7776142677558612 0.6286091531643394 0.01290670912847463
-0.807738907625171 0.5892209609684491 0.01940402700245945
-0.8378807910023425 0.5452087798675604 0.02651728539301034
-0.8675014215813377 0.4962687629316926 0.0340381916764785
-0.8959433678400658 0.4422076351979987 0.04168799582605632
-0.9224442617417422 0.382992088844921 0.0491288495889689
-0.9461671655574749 0.3188002715783921 0.05598286936623204
-0.9662508262541203 0.2500654279419556 0.06185970022102898
-0.981879405376977 0.1774956836718799 0.06639364106904576
-0.9923623899934403 0.1020603903762362 0.06928609992456435
-0.9972108509275566 0.02493894298408283 0.07034605827745168
-0.9961949055221092 -0.0525633769074705 0.06951835455387825
-0.9893701460953475 -0.1291200354560152 0.06689342612773864
-0.9770675239478708 -0.203490339912469 0.06269557567072719
-0.9598495828140245 -0.2746103330881761 0.05725332595529508
-0.9384437823994853 -0.3416526946713083 0.05095786003729188
-0.9136679350949933 -0.4040490312601533 0.04421860148152913
-0.8863625624814377 -0.4614768275295917 0.03742386250191523
-0.8573375005025112 -0.5138256016666078 0.03091377207741377
-0.8273343567287625 -0.5611545925411265 0.0249676880428812
-0.7970096765784462 -0.6036417339623475 0.01980485948574739
-0.76695392768252 -0.6415127221869394 0.01559166715453576
-0.737729181707828 -0.67498205313364 0.0124451759406465
-0.7098992623531355 -0.7042260539683631 0.01042603580567911
-0.6844520764643151 -0.7289954929926367 0.009535524113002021
-0.664487814806056 -0.7472367019980773 0.00965687119664389
0 0 0
0 0 0
0 0 0
0 0 0
0 0 0
0 0 0
0 0 0
-0.5509850966940907 0.8344859204802468 -0.006976513544606825
-0.5812910938732414 0.8136661546219977 -0.006932027575035322
-0.6062283221282431 0.7952744023926592 -0.005083930425677205
-0.6320348318538015 0.7749376169232867 -0.001913426453749964
-0.659384331428044 0.7518022129301732 0.002395015758904121
-0.6882554357513245 0.7254264350288155 0.007806569037511093
-0.7185054228762557 0.6953739735030018 0.01431762103350009
-0.7499086168530661 0.6611786582702054 0.02190543808125209
-0.782151162329218 0.6223421669549097 0.03049240064212668
-0.814801087123984 0.5783645925683046 0.03991975056124675
-0.8472781612830074 0.5287971972494596 0.04993237020212066
-0.8788407522001082 0.4733054288423194 0.06017394204084854
-0.9085936678036176 0.4117405180570149 0.07019467655962021
-0.935521141393874 0.3442152314301323 0.07947369663355823
-0.958549638207097 0.2711706028688545 0.08745910605982973
-0.9766398729403367 0.1934143152376047 0.0936240420204702
-0.9888974580149396 0.1121123648504952 0.09753273901218838
-0.9946824023630763 0.02872401989557555 0.09890323104053472
-0.9936932444952753 -0.05511590015440349 0.09765230870093082
-0.9860053475799432 -0.1377474860195703 0.09390998157300962
-0.9720541856991575 -0.2176387994976527 0.08800007396569563
-0.9525695343803863 -0.2935105613396167 0.08039174430522444
-0.9284786999148483 -0.3644114518865769 0.07163516970280046
-0.9008020749948819 -0.4297381506538247 0.06229561427215497
-0.8705608537728472 -0.4892090584631338 0.05289893189757838
-0.8387080832012822 -0.5428093322852984 0.04389510174061535
-0.8060861840818822 -0.5907239145756891 0.03564155693405012
-0.773411320418368 -0.6332679135998655 0.02840209593655284
-0.7412829847632041 -0.6708202397446044 0.02235492002995669
-0.7102040045111341 -0.7037758676487029 0.01760113893086607
-0.6805869705238262 -0.7325303194477828 0.01416709719487983
-0.6527240952375447 -0.7575007928858614 0.01199184196108668
-0.6262442212138639 -0.7795512017401172 0.01086734842449453
-0.5954377461558388 -0.8033334744583073 0.01045080224662455
0 0 0
0 0 0
0 0 0
0 0 0
0 0 0
-0.4917119946694404 0.8707296028127834 -0.007019478876091153
-0.5180846693469209 0.8553061572152247 -0.006297048309815314
-0.5440619834348805 0.8390309412871094 -0.004861866284670313
-0.5694434643537839 0.8220278468495276 -0.002088039436871316
-0.5958216696625267 0.8031140716868469 0.002079860363634738
-0.6237936389259326 0.7815518141686306 0.007632680084005011
-0.6535059795272354 0.7567807180678772 0.01459039008443561
-0.6849300015924977 0.7282464686711312 0.02297768018159523
-0.7179218423778738 0.6953511984988375 0.03278626210760884
-0.7522167817615497 0.6574491243713989 0.04393816222348403
-0.7873977757459625 0.6138732110608791 0.05625320872728592
-0.8228591495636699 0.5639887303559521 0.06942284934251997
-0.8577811620916431 0.5072704474069739 0.08299500676690115
-0.8911271982342831 0.4434006649073278 0.0963751364557028
-0.9216750472327407 0.3723795358051571 0.108851222418769
-0.9480919226355733 0.2946289284788149 0.1196474017127281
-0.9690549146058997 0.2110612771676389 0.1280066785699749
-0.983404199469434 0.1230830389531696 0.1332919577016318
-0.9903003459222853 0.03251251556365937 0.1350857549778069
-0.9893477645766495 -0.05858500184077955 0.1332621412348671
-0.9806505236025015 -0.1481144891876462 0.1280103458741574
-0.9647856345711575 -0.2341711930075306 0.1198020521133014
-0.9427040570436028 -0.315213699301931 0.1093132407621445
-0.9155897467327146 -0.3901585749257824 0.09732266996853882
-0.8847130374484071 -0.458392284469651 0.08461297127218147
-0.8513074421239426 -0.5197182573918365 0.07189278070837198
-0.8164845078340478 -0.5742674426113955 0.05974908219846911
-0.7811886786408139 -0.622398218268802 0.04862824548797893
-0.7461863013786809 -0.6646032808583699 0.03883919035065205
-0.7120787161073081 -0.7014338585156261 0.03056867996573174
-0.6793232141294053 -0.7334499037194777 0.02389998909586274
-0.648239330396726 -0.7612038497869229 0.01882736296912471
-0.6189587331703109 -0.7852752013869774 0.01526252662062281
-0.5911717662747853 -0.8064402545873027 0.01304064955116454
-0.5635966742924433 -0.8259630589432004 0.01199224698245924
-0.5366409559048866 -0.8437230813614377 0.01215921146495677
0 0 0
0 0 0
0 0 0
0 0 0
-0.4639434487471214 0.8858398339044582 -0.006653197182436829
-0.482373884104036 0.8759503068869789 -0.005147407016406924
-0.505233889162075 0.8629785980251242 -0.002580037355249099
-0.5298123226462906 0.8481138921681394 0.001314794110028596
-0.5560529532848042 0.8311197100606105 0.006718682312271562
-0.5841932450824926 0.8114980069956 0.01375634552325048
-0.6143827212004316 0.7886862758061101 0.02253508920418672
-0.6466662628416784 0.7620528501987777 0.03313907069149977
-0.680981112529336 0.7308798206588237 0.04560057161958157
-0.7171303939599931 0.6943634041355357 0.05986201680610985
-0.754738319993961 0.6516397853381932 0.07573413033161416
-0.7931983820887608 0.6018422220771172 0.09285615960747751
-0.8316285233599512 0.5441941377540231 0.1106649879966632
-0.8688500981804009 0.478138917308209 0.1283849003864582
-0.9034102983643885 0.4034973316569161 0.1450508054266318
-0.933666531075388 0.3206271140392478 0.1595777631517435
-0.9579407649228249 0.2305421668589909 0.1708794902819923
-0.9747300498973671 0.1349405885286494 0.1780235023658878
-0.9829324172679372 0.03610348940017445 0.1803895815642917
-0.9820284758576914 -0.06333712405725068 0.1777877423243098
-0.9721634378106461 -0.1607146115604433 0.1704965214165998
-0.9541046580072274 -0.2536470406764845 0.1592089203687176
-0.9290927774908309 -0.3402783331877254 0.1449043366409575
-0.8986365851706593 -0.4193943634332011 0.1286882112443701
-0.8643091432913579 -0.4904138344592701 0.1116421774864405
-0.8275869910785157 -0.5532891902618042 0.09471454026201677
-0.7897499834532966 -0.6083646376098466 0.07866022718856633
-0.7518386214018283 -0.6562312776762247 0.06402497612672173
-0.7146549662374698 -0.6976037258022124 0.05115975937191223
-0.6787895650430729 -0.7332288548582069 0.04025137006311285
-0.6446570875284756 -0.7638285006903677 0.03135699335726251
-0.6125253493310572 -0.7900731482795056 0.02443597337075146
-0.5825290619071584 -0.8125788752396663 0.01937688178742857
-0.55470115820012 -0.8318952855265466 0.01602682158602145
-0.5293615980209438 -0.8482769104573287 0.0142331207288123
-0.509471256480433 -0.86037661055288 0.01382486288489418
0 0 0
0 0 0
0 0 0
-0.3923089460003855 0.9198096080183307 -0.006631431612454402
-0.4196384692345149 0.9076735640558929 -0.00567945882852952
-0.4408496853063226 0.8975742820399728 -0.003458783853193969
-0.4629553788716259 0.886381580829081 0.0001016895655155006
-0.4867157500755037 0.873545122716348 0.005166933996056679
-0.5123984959066933 0.8586645487729386 0.01195717663678636
-0.5402447941237022 0.8412535746463297 0.02068781204018355
-0.5704500593042042 0.8207258223377115 0.03155716064407742
-0.6031416493988669 0.7963789277780217 0.04472979042587164
-0.6383531013989034 0.7673777420606466 0.06030521473557642
-0.6759813448151329 0.7327500338395018 0.07827266042579935
-0.7157256767503343 0.6914066788685757 0.09845587872850459
-0.7570146950007725 0.6421992403398409 0.1204528424729684
-0.7989342553887696 0.5840277892227289 0.1435813253247205
-0.8401777793077146 0.5160072618885079 0.1668466506582656
-0.8790485246470173 0.4376864293258179 0.1889557643998119
-0.9135461322336851 0.3492884658778255 0.2084011321600461
-0.9415580159650661 0.2519106299529633 0.2236281223116376
-0.9611446100057175 0.1475999666987101 0.2332708479161
-0.9708619050289468 0.03923395797571719 0.2364061291614986
-0.9700286624963836 -0.06980692657921783 0.2327474746093708
-0.9588472806968864 -0.1761036211934577 0.2227092429665564
-0.9383371268824519 -0.2766653535050219 0.2073155046877255
-0.9101112930040055 -0.3692658450523515 0.1879898136185826
-0.8760803147032324 -0.4525787610888544 0.1663001719805544
-0.8381726519733342 -0.5261246416650339 0.1437340144740518
-0.7981309907053878 -0.5900960154848202 0.1215467571948116
-0.7574014207423285 -0.6451388219124364 0.1006925435120948
-0.7171022879269604 -0.6921486318600728 0.0818204134928885
-0.6780462833511987 -0.7321117844451684 0.06531135207708012
-0.6407896038527251 -0.76599844117627 0.05133294955281134
-0.6056876317008516 -0.79470169073771 0.0398963098950032
-0.5729443411845899 -0.8190113360815482 0.03090652478802244
-0.5426512773441827 -0.8396092613836229 0.02420494568416481
-0.5148250524481116 -0.8570710953577553 0.01960364440751386
-0.4894391954956814 -0.8718735414490522 0.01690566868323599
-0.4659735811177269 -0.8846561437012406 0.01587857399046474
-0.4377084727296042 -0.8989687240572054 0.0163256261036618
0 0 0
0 0 0
-0.3637424453245234 0.9314778705871649 -0.006356891987129832
-0.3788383103459605 0.9254520435951441 -0.004477680179348868
-0.3971675228137438 0.9177451140375392 -0.00136546044164024
-0.4175974375738403 0.9086265786796711 0.003181296691165366
-0.4400503118073686 0.897923478306475 0.009441937525653076
-0.4646642790013015 0.8853097185342019 0.01771468568989665
-0.4916674888185864 0.8703229391346391 0.02830303967540821
-0.5213054518684663 0.8523603539489921 0.04150244412275313
-0.5537950786559226 0.8306598711252391 0.05757768108113564
-0.5892821787579423 0.8042759965305215 0.07672441073822921
-0.6277851615223144 0.7720636085348646 0.09901300595641048
-0.6691175266887834 0.7326853161013772 0.1243139696386104
-0.7127902582469027 0.6846621661559935 0.1522096119924621
-0.7579051935763276 0.6264910645708666 0.1819028959716998
-0.8030641663234398 0.5568493960151105 0.2121478138582727
-0.8463349955285793 0.4748908814092757 0.2412379035267063
-0.8853261953700506 0.3805993484670991 0.2670986030251937
-0.9174133246134882 0.2751133815320307 0.2875159458597684
-0.9401165699405416 0.1608880734812694 0.3004926999690937
-0.9515557242565699 0.04156516628828372 0.3046539686036955
-0.9508407538267007 -0.07848851980710275 0.2995687118521577
-0.9382499179861272 -0.1948663622662907 0.2858569436905943
-0.915126547771524 -0.3038077352716484 0.2650363400609129
-0.8835478549308379 -0.4026642540232213 0.2391750124470302
-0.8459026930746416 -0.4900444716556754 0.2104876472593532
-0.804516856797272 -0.5656777649907156 0.181000810285881
-0.7614047068083055 -0.630120544382933 0.1523514752036021
-0.7181578031987528 -0.6844300796367687 0.1257172851804684
-0.675938366829092 -0.7298873948409341 0.1018416177244517
-0.6355338321193972 -0.7678008483430808 0.08110860321370782
-0.597435486244084 -0.7993882542849757 0.06363378573928584
-0.5619177680028888 -0.825719731312698 0.04934923832782671
-0.5291075556188679 -0.8477001379632434 0.03807454115447806
-0.4990449929493889 -0.8660713621657399 0.0295717880508329
-0.4717500065197541 -0.8814168214581869 0.02358639860509083
-0.4473178316958629 -0.8941542671980596 0.0198721890694469
-0.4260715118035039 -0.9045066289099603 0.0181885977308617
-0.4094062781451899 -0.9121710496799289 0.01817898625115227
0 0 0
0 0 0
-0.3238534237897019 0.9460955664950494 -0.004705205425759503
-0.3349304584564041 0.9422394621503554 -0.002526650904105797
-0.3506588921867634 0.9365024958421341 0.001190215024703832
-0.3690858305151011 0.9293717897816098 0.006612569175796561
-0.3897668958862366 0.9208064090785851 0.01404720153653932
-0.4127518260737684 0.9105312197450801 0.02385011409417816
-0.4382732785566377 0.8981040830120299 0.03640864430785602
-0.4666316653897815 0.8829144754888657 0.05212406188872114
-0.4981362696246168 0.864155524579897 0.07138267452619931
-0.5330551138241123 0.8407854475106757 0.09450966553868792
-0.5715506949626521 0.8114919166740201 0.1216991054216653
-0.6135891214593234 0.7746773414419738 0.1529163388365373
-0.6588182502008132 0.7284916973173341 0.1877720962817635
-0.7064217694633934 0.6709488007202997 0.2253796584437012
-0.7549750016249326 0.600165384911396 0.2642238779436638
-0.8023545043960133 0.5147464076006221 0.3020983037649853
-0.845778610867028 0.4142903166759269 0.3361875591219874
-0.8820566178403281 0.2998998604518379 0.3633678530429582
-0.9080715322063603 0.1744909956195261 0.3807347959460741
-0.9214074971166274 0.0426722554157491 0.3862477221615746
-0.9209121331660849 -0.08990141107829626 0.3792605690994277
-0.9069565421106455 -0.2175404650574312 0.3607020609662449
-0.8812800408817629 -0.3355272887618151 0.3328166582964005
-0.8465083432245927 -0.4407555611171658 0.2985936372320194
-0.8055659625401903 -0.5318584753423773 0.2611322312606737
-0.7611894242183754 -0.6089275257321736 0.2231544955043258
-0.7156403081792346 -0.6730402834283575 0.1867504382640248
-0.6706100839745388 -0.7257908336911292 0.153328995958354
-0.6272550056791116 -0.7689277985248186 0.1236980133481247
-0.5862940736208619 -0.8041244578215869 0.09819936644497068
-0.5481223009967389 -0.8328602529109468 0.07684882738958028
-0.5129138000286086 -0.8563786591417403 0.05945608385023678
-0.4807074386745949 -0.8756884883665677 0.04571684312357729
-0.4514813393060614 -0.8915828627360689 0.03527887659436266
-0.4252374455754774 -0.9046551986960124 0.02778644188665342
-0.4021456866412098 -0.9152890823921196 0.02290725582999319
-0.3828941943223896 -0.9235683524963527 0.02033554084307267
-0.3697688969124685 -0.9289151715636103 0.01968671925648929
0 0 0
0 0 0
-0.276826586224014 0.9609174447645485 -0.00216921799929543
-0.2870222072917734 0.957923926758964 -5.535381336835893e-05
-0.301016475263802 0.953610342173846 0.004049310908824536
-0.317388915061359 0.948240105106681 0.01024595839555105
-0.3358961595544029 0.9417110676142815 0.01881582125160809
-0.3566715567267989 0.9337430706763648 0.03015424656585754
-0.3800026137447514 0.9239031312860049 0.04473273462545631
-0.4062533209337567 0.911581264328255 0.06307010191837019
-0.4358216837973133 0.8959438388316893 0.08569771053890689
-0.4690963916119681 0.8758741739492096 0.1131061748332964
-0.5063936846954038 0.8499104455755185 0.1456628662433736
-0.5478603416027636 0.8161990758086851 0.1834887319372793
-0.5933330501909638 0.7724956430783276 0.2262882519621543
-0.6421545512312166 0.716263607261036 0.2731372864448255
-0.6929687504597658 0.6449353622927659 0.3222618335306379
-0.7435543768461335 0.5563923674128661 0.3708832999174587
-0.7908016053022903 0.4496608368295889 0.415256490464669
-0.8309578402644461 0.3256865325609084 0.4510402977689456
-0.8602137573572395 0.1878799336234016 0.4740605680659444
-0.8755377834334169 0.04204501057962818 0.4813167427649462
-0.875462608714474 -0.1045133244159477 0.471849749138827
-0.8604574319784299 -0.2444730110735096 0.4470413343413969
-0.8327043003940013 -0.3719605407651285 0.4101815503152832
-0.795421138326265 -0.4834102042402187 0.3655404042512644
-0.7520731633059773 -0.577625169399233 0.3173879656058933
-0.7057682822377198 -0.655259850839864 0.2693058849422658
-0.6589483251913953 -0.7180949325973663 0.2238900902350043
-0.6133328464960142 -0.7683890119965457 0.1827598031626993
-0.5700116215699161 -0.8084285656044647 0.1467310655244537
-0.5295932089258129 -0.8402774242549904 0.1160382839715339
-0.4923525518691901 -0.8656742199983084 0.09053788984848295
-0.4583533718344799 -0.8860195608271498 0.06986790650668345
-0.4275417760719763 -0.9024074630100194 0.05356118386518104
-0.3998197308623958 -0.9156710165133664 0.04111900206107755
-0.3751164623458997 -0.9264233281505522 0.03205396598786102
-0.3534972257134705 -0.9350767346133945 0.02590775554983813
-0.3354309694630766 -0.9418021190875282 0.02224484675832196
-0.3227006927688742 -0.9462763364037424 0.02062421025879701
0 0 0
-0.1906184028043186 0.9816642023614711 -0.0001353305082273072
-0.2196055607111061 0.9755887441187218 -7.322242344192549e-06
-0.2348778248204741 0.9720221757570886 0.002301574256324001