# OOMMF: rectangular mesh v1.0
# Segment count: 1
# Begin: Segment
# Begin: Header
# Title: 
# Desc: time = 1.74e-09
# Desc: stepsize = 2.9653668160696294e-14
# Desc: step = 11134
# meshunit: m
# valueunit: (none)
# valuemultiplier: 384000.0000000001
# xmin: 0
# ymin: 0
# zmin: 0
# xmax: 9.357999999999999e-08
# ymax: 9.357999999999999e-08
# zmax: 2.3395e-08
# ValueRangeMaxMag: 1
# ValueRangeMinMag: 0
# meshtype: rectangular
# xbase: 1.16975e-09
# ybase: 1.16975e-09
# zbase: 1.16975e-09
# xstepsize: 2.3395e-09
# ystepsize: 2.3395e-09
# zstepsize: 2.3395e-09
# xnodes: 40
# ynodes: 40
# znodes: 10
# End: Header
# Begin: Data Text
0 0 0
0 0 0
0 0 0
0 0 0
0 0 0
0 0 0
0 0 0
0 0 0
0 0 0
0 0 0
0 0 0
0 0 0
0 0 0
0 0 0
0 0 0
0 0 0
-0.9838597742309194 0.1777336127235767 0.0207534950914054
-0.98904591108619 0.1459810275084286 0.02185692959385957
-0.9944177080535268 0.1030555599277214 0.02264891780093655
-0.9981775309290901 0.055758035976525 0.02307938847424802
-0.9997026085537615 0.0071942518277672 0.02330101266989924
-0.9989097857700738 -0.04031387984107818 0.02353786279473445
-0.9962125877086447 -0.0835574154722849 0.02405490408289247
-0.9929922835358712 -0.1155015477511099 0.02501434199240819
0 0 0
0 0 0
0 0 0
0 0 0
0 0 0
0 0 0
0 0 0
0 0 0
0 0 0
0 0 0
0 0 0
0 0 0
0 0 0
0 0 0
0 0 0
0 0 0
0 0 0
0 0 0
0 0 0
0 0 0
0 0 0
0 0 0
0 0 0
0 0 0
0 0 0
0 0 0
0 0 0
0 0 0
-0.9205139951013955 0.3901120947998505 0.02159949798813824
-0.9324860500183222 0.3604774149953038 0.02293032488932548
-0.9474931897797647 0.3189030687391522 0.02361118526710333
-0.9626962659815482 0.2695662722056091 0.02345046597309006
-0.97761842331141 0.2091302371354249 0.02295130318288584
-0.986949599631314 0.1592813057916887 0.02366333477941097
-0.9936864578569345 0.1095015609801123 0.0244260437782452
-0.9979756946206725 0.05850230424055251 0.02493979440434915
-0.9996583438958905 0.006874081494084606 0.02521790005010919
-0.9986875998329671 -0.04448669049042507 0.02537739760251465
-0.9951532615268284 -0.09496386134633866 0.02553137502580975
-0.9889750632293544 -0.1458566127043411 0.02557680278904523
-0.9778519206146371 -0.2078387420745165 0.0246714134809377
-0.9656210554934445 -0.2589192717417751 0.0231686837872753
-0.9529968236031007 -0.302156159070201 0.02233181001046192
-0.9426774637239803 -0.3329365656519735 0.022637195912751
0 0 0
0 0 0
0 0 0
0 0 0
0 0 0
0 0 0
0 0 0
0 0 0
0 0 0
0 0 0
0 0 0
0 0 0
0 0 0
0 0 0
0 0 0
0 0 0
0 0 0
0 0 0
0 0 0
0 0 0
0 0 0
0 0 0
-0.8686798087701336 0.494980225186443 0.01974756971026178
-0.884473913257371 0.4661189369653794 0.0209531231432592
-0.90740456490821 0.4196747437193674 0.02213741330473902
-0.925826235028449 0.3772034471576972 0.02373482642441247
-0.943142257770704 0.331445112795074 0.02503634980261248
-0.9592688196537438 0.2813042298026753 0.02590872314947335
-0.9736364611595764 0.2265429026192061 0.02665248156403199
-0.984638793088235 0.1723999143775698 0.02765351095882626
-0.9926134619939976 0.1179049135825808 0.02858227460112566
-0.9976044466403043 0.06270234180195032 0.02921958890954603
-0.9995398691309542 0.007016016496551839 0.02950975313679127
-0.9983759619701746 -0.04874782306416119 0.02948030370658815
-0.9941128505077257 -0.1043530299541619 0.02915622737579998
-0.9866844372405218 -0.16013732282523 0.02845802427650258
-0.9757911042364072 -0.2170075199844652 0.02719296164974476
-0.9626641093342208 -0.269481872570179 0.02563850533515205
-0.9478957135546837 -0.3176424484742357 0.02443340238175659
-0.931674140473765 -0.3625110710972598 0.02385412552134214
-0.9111278802953501 -0.411452588901604 0.02351069617576945
-0.8967834860067423 -0.4418387720717202 0.0236194563813158
0 0 0
0 0 0
0 0 0
0 0 0
0 0 0
0 0 0
0 0 0
0 0 0
0 0 0
0 0 0
0 0 0
0 0 0
0 0 0
0 0 0
0 0 0
0 0 0
0 0 0
0 0 0
0 0 0
-0.8296891529971376 0.5578842210474041 0.01952191858457612
-0.8517722142193065 0.5235108238336706 0.02050639931657017
-0.8733943293176221 0.4865042093368027 0.02227105326186559
-0.8959979180193279 0.4433908330715183 0.02433721539482187
-0.9169866874268555 0.3980281892888571 0.02662659597762428
-0.9364535308848962 0.3496046662966185 0.02883334522458196
-0.9541563302378477 0.2977184176927932 0.03081300429270124
-0.9695993614298831 0.2425163065962003 0.03260244392219614
-0.9820400033161025 0.1855404985132624 0.03423675361886477
-0.9912375805074134 0.1272157776763616 0.03555565918397645
-0.9970308577075708 0.06785483030636991 0.03640316995810673
-0.9992952679156868 0.007871904939535462 0.03670150724341069
-0.9979685219211044 -0.05225987636161269 0.03643809239345651
-0.9930585470843942 -0.1120956354418196 0.03562710453469498
-0.9846303687883017 -0.1712540515636004 0.03427953737820805
-0.9728427220699368 -0.2291823844224049 0.0324418369704323
-0.9583014015378453 -0.2841429493046823 0.03035141135165651
-0.9414939273492892 -0.3358338081143055 0.02836966851858514
-0.9227227371688409 -0.3845375423761386 0.02671383190335389
-0.9020335218986841 -0.4309178325878881 0.02540367943452443
-0.8819196053753084 -0.4707578803183791 0.02459324648772072
-0.8613497092795216 -0.5074325254009173 0.0242674780175097
0 0 0
0 0 0
0 0 0
0 0 0
0 0 0
0 0 0
0 0 0
0 0 0
0 0 0
0 0 0
0 0 0
0 0 0
0 0 0
0 0 0
0 0 0
0 0 0
-0.7533769462096511 0.6572980343932692 0.01955686331098061
-0.7745116329499033 0.6322296412396682 0.02043064275136165
-0.8066869238953234 0.5906049843226683 0.02102282829499845
-0.8334007731520887 0.5521986427795875 0.02279934696173367
-0.8584746781527783 0.5122255678599816 0.02542035800303355
-0.8829525539447812 0.468594044541301 0.02853785035375049
-0.9062102707768798 0.4216207745234943 0.03191970596203089
-0.9278982213180287 0.3711568361824457 0.03531987867866049
-0.9475993163430051 0.3171270575609043 0.03854821693712192
-0.9647882396695894 0.2597366141380972 0.04147943913954794
-0.978876340165042 0.1996648601837945 0.04398925178811498
-0.9894364470027002 0.1375061502739002 0.04590834324525143
-0.996156783080371 0.07385732307299862 0.0470824739309281
-0.9988312244641296 0.009366792240010359 0.04741780508014892
-0.9973694665004944 -0.05527666444083215 0.04688963276476128
-0.991805084025669 -0.1193713042843166 0.0455320438185659
-0.9822997060093034 -0.182211781247134 0.04342987852598584
-0.9691604235371943 -0.2430408787750022 0.04073333639023626
-0.9528854319562895 -0.3009802816588098 0.0376858543495863
-0.9339838688149407 -0.3556383262015206 0.03457620178758712
-0.9129158240638507 -0.4069202047205183 0.03163297589590736
-0.8901221074669077 -0.4547990166018344 0.02899117618645984
-0.866322650160652 -0.4987689647546831 0.0267317342528549
-0.8407392100166002 -0.5408742764349259 0.02475071376057177
-0.8099808981421017 -0.5860195020021185 0.02262935964853264
-0.7896126817095481 -0.6132223626821083 0.02168286858392446
0 0 0
0 0 0
0 0 0
0 0 0
0 0 0
0 0 0
0 0 0
0 0 0
0 0 0
0 0 0
0 0 0
0 0 0
0 0 0
-0.7050527097953773 0.7089278432976595 0.01794406329469713
-0.7307855725820691 0.6823337458586476 0.01931595631603838
-0.7568607410767064 0.6532332462160856 0.02116942736147293
-0.7856797457973566 0.6181892048786487 0.02344022216841564
-0.8136715564457707 0.5807175811601771 0.02656481060706419
-0.8409600988452747 0.5402368134012573 0.03050078025559767
-0.8676205032943259 0.4959916150685497 0.03502827493599139
-0.8932501951608079 0.4477858874576091 0.03989846913077491
-0.917369552935182 0.3955022502419758 0.04484499304311716
-0.9394258982014315 0.3391431262374037 0.04960767797784714
-0.9587978973652146 0.2789211817277809 0.05394039665798547
-0.9748419574871151 0.2153261797795487 0.05760029708460097
-0.9869936271833992 0.1490015446522364 0.06034997589563818
-0.9948074152274674 0.08071630584163136 0.06199261713885812
-0.9979863721084477 0.01134104762241435 0.06240658398474146
-0.9964054301424716 -0.05819167720161855 0.06156254938725231
-0.9901234708355533 -0.126934389406604 0.05952456036401394
-0.9793822724847115 -0.1939703663309615 0.05644343476538555
-0.9645937140404658 -0.2584522939763292 0.05254882084302872
-0.9463102134986563 -0.3196562102966293 0.04813405288279555
-0.9251346006187113 -0.3771373138191483 0.04351341475147905
-0.9016650532227374 -0.4306760577552191 0.03896492106062514
-0.8764793846149928 -0.4801873267944485 0.03469898458059263
-0.8501196766655252 -0.5256848554147933 0.03085398083926637
-0.8227146244480682 -0.5677896522582786 0.02748740634720257
-0.7943535961403109 -0.606953957217377 0.02468315452129355
-0.7685677781822603 -0.6393566321540299 0.02294923224510021
-0.7433567403088902 -0.6685199103114811 0.02240281577100195
0 0 0
0 0 0
0 0 0
0 0 0
0 0 0
0 0 0
0 0 0
0 0 0
0 0 0
0 0 0
0 0 0
-0.6503936981944526 0.7594129111080798 0.0167352260604415
-0.6777880916931815 0.7350356513669922 0.01805253385029825
-0.705001177645787 0.708915944482331 0.02028603403273623
-0.7328845871408418 0.6799521942203994 0.0233494219684631
-0.7619484529300566 0.6470650323530845 0.02722864270201569
-0.7912675351364173 0.6106307413824607 0.03202788656536967
-0.8205377530851115 0.570347386676967 0.03770483089459523
-0.8494909933789322 0.5257583699793753 0.04408161254655459
-0.8776674604546278 0.4765596560178321 0.05089914650845594
-0.9044807272651828 0.4225739564913809 0.05784345512731401
-0.9292437191166512 0.3637820733032989 0.06456557616413454
-0.9511947674060075 0.3003836584190443 0.07069775254010356
-0.9695496979841907 0.2328456632043776 0.0758701539848029
-0.9835825276916549 0.1618860912487083 0.07973897842278321
-0.9926978809968553 0.0884440068564738 0.08202788986390336
-0.9964922539601083 0.01362781647493814 0.08256797451571388
-0.9947973320528746 -0.06135842007331552 0.08132288993013334
-0.9876982566759717 -0.1353013699459935 0.07839447078705716
-0.9755235414216631 -0.2070659259239582 0.07401028613233536
-0.9588079015671434 -0.275672879488967 0.06849723648930445
-0.9382318543247748 -0.3403626749433705 0.06224336941142494
-0.9145419601194663 -0.4006446594914227 0.05564943846837772
-0.8884872131212126 -0.4562691017235543 0.0490813501493294
-0.8607774399789444 -0.5071754285219614 0.0428402092298692
-0.8320425938461928 -0.5534660269459755 0.03715479837565025
-0.802757109000919 -0.5954363319216808 0.03219625096404734
-0.773433598663716 -0.6332526201537663 0.02813516530043894
-0.7451627758702339 -0.6664063206949202 0.02520026180867953
-0.7177017338748597 -0.6959554836271752 0.02345604404590795
-0.6905388048337656 -0.7229367726612171 0.02277239014546732
0 0 0
0 0 0
0 0 0
0 0 0
0 0 0
0 0 0
0 0 0
0 0 0
0 0 0
-0.5951258353502595 0.803487618721728 0.01526062448073475
-0.6211154594765891 0.7835403447899867 0.01673660914204964
-0.6478484550038717 0.7615301922217235 0.0190826016004245
-0.6756095698865648 0.7369166009478835 0.02248626970193819
-0.7044962782465308 0.7091940480483125 0.02699622472928244
-0.7345185471719637 0.6778034449051301 0.03263424482235026
-0.7653175257282088 0.6424450683715756 0.03941343601227285
-0.7965792584969053 0.6026840108201174 0.04725958140204291
-0.8279306373950511 0.5580290663573193 0.05598589789404215
-0.858842836447927 0.5080599415114468 0.06529990898511148
-0.8886282459915948 0.4524847467658777 0.07481573611293599
-0.9164573476839729 0.3912007700897481 0.08407072830209723
-0.9413933487419843 0.32436572508867 0.09254965873547844
-0.9624553688381265 0.2524586088829314 0.09972118027560734
-0.978710451821476 0.1763010729429985 0.1050894056246843
-0.9893759757483467 0.09703537246599753 0.1082557855377312
-0.9939146242372621 0.01605436375210145 0.1089769568845482
-0.9921028894353409 -0.06511028864203974 0.1072031113680819
-0.9840580566023539 -0.1449236501362554 0.1030867443815257
-0.9702177985223076 -0.2219822416428867 0.09696034150994581
-0.9512777566664062 -0.2951239013492674 0.08928892722010379
-0.9281016856975989 -0.3634963552936061 0.08060806841463843
-0.9016236227933614 -0.4265775650440106 0.07145924588250792
-0.872765587483999 -0.4841430584903843 0.06233560956055291
-0.8423787564482131 -0.5362088219831173 0.05364820511665717
-0.8112029404549708 -0.5829749988638344 0.04571586264001451
-0.7798482417590427 -0.624766443701648 0.03877641873258617
-0.7488688807078131 -0.6618953727389414 0.03301386154639926
-0.7188564297456548 -0.6945710762374904 0.02857364988278584
-0.6900615950253657 -0.7233005825197605 0.02551984321312754
-0.6626710858524287 -0.7485306803949032 0.02385062855997088
-0.6367051796063554 -0.7707472475306398 0.02356256960478844
0 0 0
0 0 0
0 0 0
0 0 0
0 0 0
0 0 0
0 0 0
0 0 0
-0.568050522023053 0.8228429429963018 0.01575105045771298
-0.5885856959013207 0.8082389298267074 0.01779637302755336
-0.6142906785827097 0.7887957576334366 0.0211710874988993
-0.642237783017893 0.7660672045946463 0.02591656051264918
-0.6718169061548546 0.7400214814334918 0.03209753295034978
-0.7028501845326471 0.7102263395954207 0.03975128485110176
-0.7351220993503994 0.6761709532739909 0.04887065576808977
-0.7683586310123877 0.6372606223307561 0.05936255869979083
-0.8021652631974175 0.5928638741051721 0.07101631714207506
-0.835966239468337 0.54239310546401 0.0834875177153676
-0.8689810944660028 0.485385723950618 0.09629411428328072
-0.9002297126512935 0.4215960717598169 0.1088265442640725
-0.9285689430955023 0.3510968051724176 0.1203775365930972
-0.9527694471543744 0.2743704319838243 0.1301969531984399
-0.9716332316509055 0.1923611093249364 0.1375720421121124
-0.9841360268268708 0.1064620206624761 0.1419229328117289
-0.9895666353876245 0.01842480419762246 0.1428929694487976
-0.9876299441366025 -0.06980150906606734 0.1404095537234928
-0.9784864313928965 -0.1562716770344619 0.1346976857144571
-0.9627182865577406 -0.2392413807835231 0.1262420787539591
-0.9412335447995968 -0.3173181034304761 0.1157092709305106
-0.9151357203132667 -0.3895402756654545 0.1038507922030423
-0.8855911762645277 -0.4553816441596339 0.09141021105367944
-0.8537205004189973 -0.5146962049889396 0.0790513993191744
-0.8205248298221925 -0.5676332103456468 0.06731673014902106
-0.7868463889083164 -0.6145466163110814 0.05661463275993435
-0.7533638256667716 -0.6559056896680555 0.04722999510690018
-0.720632541820624 -0.6921997930724847 0.03934699657604216
-0.6891391988900952 -0.7238739634578818 0.03307037315928285
-0.6593321817811847 -0.7513137430462624 0.02843824146245233
-0.6320980059046948 -0.7744700452884923 0.02546094817850401
-0.6106511580705212 -0.7915307567006351 0.02417073321292803
0 0 0
0 0 0
0 0 0
0 0 0
0 0 0
0 0 0
0 0 0
-0.4904068888969386 0.8713380368826222 0.01646538198655111
-0.5232204560675973 0.8520251635959639 0.01713111063783137
-0.5493752263118884 0.8353418072003016 0.0197718450857476
-0.5761235802779564 0.8170029618310729 0.0242441870757262
-0.6044506317737812 0.7960584144891557 0.03050302393678079
-0.6345349648366938 0.7719297652655512 0.03859813333266447
-0.6664045332649462 0.7440058700096256 0.04858254249366606
-0.6999781901071547 0.7116003667828986 0.06046032888394926
-0.7350543872605718 0.6739423983732065 0.07413967523502558
-0.7712634862232955 0.6302079506484293 0.0893900092750559
-0.8080115304768982 0.5795879568264927 0.1058072158128718
-0.844440324599511 0.5213854396059971 0.1227915369931222
-0.8794161941406899 0.455141603356631 0.1395466888788791
-0.9115618440661093 0.3807826342791055 0.1551115401066544
-0.939346175972356 0.2987616650316368 0.1684346436860153
-0.9612364272248243 0.2101543570254491 0.1784927931297908
-0.9758955088883099 0.1166632716277518 0.1844387073928232
-0.9823840768592357 0.0205018722657878 0.1857449831543888
-0.9803134857277995 -0.07583546162352203 0.1823031882896131
-0.969903724920378 -0.169869063546628 0.1744455950586502
-0.9519298035481364 -0.2594206029420267 0.1628821656474431
-0.9275772718675335 -0.3428209821130999 0.1485738164610202
-0.8982534397962617 -0.419002450208593 0.1325809360857679
-0.8654047410534279 -0.4874790663172555 0.1159258127627563
-0.830375671666634 -0.5482491364239672 0.09949436323008412
-0.7943223199412893 -0.6016631982264978 0.08398480781039616
-0.7581767006403176 -0.6482919314067421 0.0698975126816216
-0.7226521462361358 -0.6888116823437315 0.0575529478576418
-0.6882783158819912 -0.7239146028318793 0.04712332430349155
-0.6554410546019825 -0.7542559801470438 0.03866445854609417
-0.6243974789440526 -0.780445325064839 0.03213849518488004
-0.5952444959322357 -0.8030767318432994 0.02741811142773449
-0.5672900685426466 -0.8231617280508294 0.02422287359606034
-0.5337217887014102 -0.8453737625914687 0.02200576713749969
0 0 0
0 0 0
0 0 0
0 0 0
0 0 0
-0.4257775064467557 0.9046997893245451 0.01522518308940676
-0.4541441773274769 0.8907788517187635 0.01631268004191357
-0.481359418912862 0.87633064666838 0.01837682055334824
-0.50728472643195 0.8614919454483377 0.02222238188177556
-0.5339038031037344 0.8450785908548514 0.0280874404342412
-0.5621120831157357 0.8262729596885183 0.03609712042343718
-0.5922908533564999 0.8043883531259071 0.04637803775084791
-0.6246181215135046 0.7786952947335239 0.05904100470698551
-0.6591366550229133 0.7483599425107867 0.07413680901182718
-0.6957407023824971 0.7124280354853332 0.09160332582836601
-0.7341235891517289 0.6698472139853822 0.1112082090810059
-0.7737092217227067 0.6195319606232891 0.1324922261398996
-0.8135886962765837 0.5604768291922611 0.1547228400384286
-0.8524837831163694 0.4919218362016856 0.17687370237422
-0.8887638871294896 0.4135609168004888 0.197651514109096
-0.9205439129212352 0.3257598764020713 0.2155908330847302
-0.9458771507983008 0.2297224509337674 0.2292248047979763
-0.9630260613209711 0.1275290046238818 0.2373123641874955
-0.9707533741380889 0.02199103518309076 0.2390696153238445
-0.9685484101852955 -0.08367752494994772 0.2343332006903564
-0.9567122702006541 -0.1862961593847852 0.223596451326913
-0.936274408008959 -0.2831361403646065 0.2079042061308683
-0.9087764387452948 -0.3722070195981382 0.1886460149149448
-0.8760004792639693 -0.4523581168370455 0.1673179442287561
-0.8397201935892403 -0.5232136317610616 0.1453185879983979
-0.8015230978046006 -0.5850046050408495 0.1238157331146388
-0.7627160801714182 -0.6383673543204672 0.1036884853097656
-0.7243009817681837 -0.6841585716222599 0.08552857233365768
-0.6869975592917436 -0.7233114044856509 0.06967758368501092
-0.6512902944760584 -0.7567388440163779 0.05627854189693132
-0.6174741740151196 -0.7852841445696531 0.04532611511979759
-0.585672358344365 -0.8097163581500827 0.03670569459247799
-0.5557801876469349 -0.830779942464226 0.03021705177998266
-0.5271727809310496 -0.8493727454258942 0.02558902837354536
-0.4981313757471286 -0.8668081351397935 0.02255635945239866
-0.468936638554065 -0.8829772634020687 0.02120333314851855
0 0 0
0 0 0
0 0 0
0 0 0
-0.3959275236350684 0.9181628137356808 0.01477983427441447
-0.4147765375323765 0.9097726334797207 0.01655835994373586
-0.4377268721028101 0.8988887466841927 0.0198546348143346
-0.4619404602059565 0.8865564572381233 0.0250730802674166
-0.4875396795812262 0.872494248113559 0.03253994226469365
-0.5149975948680087 0.8561364851234057 0.04251818576451815
-0.5446983251743629 0.8368102956628648 0.05524729518150154
-0.5769165701963117 0.8137170809158362 0.07093506367610834
-0.6118142512313257 0.7858969529013672 0.08971789905363127
-0.6494043218157256 0.7522096018169047 0.111600814251109
-0.6894824792678541 0.7113465593233963 0.1363817558231979
-0.7315366341988592 0.6618913709464215 0.163566395973227
-0.774651081233917 0.6024464717608506 0.1922861175592898
-0.8174323027731824 0.5318418938685344 0.2212433734810202
-0.8579960078289396 0.4494230914343262 0.2487201950691073
-0.8940617604664081 0.3553782362476364 0.2726900762279872
-0.9231882112028682 0.2510162509173435 0.2910573284963788
-0.9431374625685325 0.1388714401506298 0.3020040559500473
-0.9522898805634282 0.02252805734236499 0.3043623991377222
-0.9499769677256165 -0.09384963578740615 0.2978858953582959
-0.9366067238573089 -0.2061629913476271 0.2833101936462508
-0.9135356443075475 -0.3109918108003202 0.2621768872245058
-0.8827486063571907 -0.40598663432232 0.2364947160637462
-0.8464731795368019 -0.4899662535803694 0.208365608192124
-0.8068476284191143 -0.5627700882073041 0.179685092129517
-0.7657062155194743 -0.6249798002536281 0.1519678939440138
-0.7244863999867456 -0.6776205026049661 0.1262929557957912
-0.6842276847472188 -0.7219106010776352 0.1033322770347546
-0.6456231092648013 -0.7590859016178784 0.08342298692939634
-0.6090900065241673 -0.790295487387079 0.0666513808409733
-0.5748354630148897 -0.8165553385165772 0.05292985547434011
-0.5429003139336036 -0.8387432833158679 0.04205893274099644
-0.5131762993350061 -0.8576183844890244 0.03377561823658285
-0.4854418951618781 -0.8738267898486118 0.0278012187594987
-0.4598111105650463 -0.8876945652351474 0.0239186423720179
-0.4393576896639355 -0.8980407818924145 0.02208109125991854
0 0 0
0 0 0
0 0 0
-0.319025866813301 0.9476526167489331 0.01330467109405498
-0.347882677532897 0.9374244781036997 0.01459419489207328
-0.3690729544350522 0.9292408750821337 0.01722063823358241
-0.3903794861291767 0.9203991868248913 0.02166087952041627
-0.4128066471817152 0.9103796577472685 0.02827632936851401
-0.4368225960811982 0.8987679315029194 0.03744629293862076
-0.4628826191313962 0.8850339409334377 0.04954396332436853
-0.4914088241660611 0.8685051136346049 0.06493254286003626
-0.5227683997534608 0.8483314125986464 0.08394649854276427
-0.5572476739442362 0.8234431544821399 0.1068475606658385
-0.5950009997116705 0.7925173786595247 0.1337535601946634
-0.6359667880619576 0.7539714175352422 0.1645398007232716
-0.6797519804462103 0.7060092842089494 0.1987162189913576
-0.7254970495405931 0.6467539306095053 0.235294250565221
-0.7717508645158825 0.5744986423269375 0.2726754720973136
-0.8164080455470154 0.4880910389208613 0.3086179529632973
-0.8567806352713599 0.38741081709798 0.3403524670389211
-0.8898685260994053 0.2738193031636868 0.3649068312221959
-0.9128348522869169 0.1503824813579438 0.3796282941917654
-0.9235853602521952 0.02167340909525124 0.3827797613066974
-0.9212514473658298 -0.1068971359847184 0.3739903381701561
-0.9063735536106072 -0.2300381512581781 0.3543577715826178
-0.8807092376064842 -0.343475628206924 0.3261529267421396
-0.8467681047313167 -0.444482131550975 0.2922659945009594
-0.8072766657018947 -0.53194063542326 0.2556238357405842
-0.7647496365025083 -0.6060548329223947 0.2187590751504702
-0.7212448617008274 -0.6679062879397115 0.1835947711694129
-0.6782880416726308 -0.7190267312964133 0.1514129855894217
-0.6369100955416027 -0.7610731017007331 0.1229360161417783
-0.5977378521734469 -0.7956232055274689 0.09845392275206104
-0.5610953592317659 -0.8240722942629239 0.07795416394790045
-0.5270915690612117 -0.8475996315536299 0.06123187417301719
-0.495684557179873 -0.8671765852451375 0.04797488693030029
-0.4667245436952325 -0.8835934069152456 0.0378271274138764
-0.4399928299574546 -0.8974853231343078 0.03043689117726755
-0.4152362694866394 -0.9093565068730184 0.02548693607556627
-0.3916560755288973 -0.9198326475865395 0.02265874963979842
-0.3616462534127556 -0.9320668043357048 0.02152811296753933
0 0 0
0 0 0
-0.2889650830545363 0.957254965493363 0.01273231375612751
-0.3038968712648263 0.9525918138762864 0.01468086412085481
-0.3212168808493611 0.9468305350013352 0.01821135487798823
-0.339867715399732 0.9401735656621901 0.02374031295096562
-0.3599362306553471 0.9324376103681632 0.03171770219498164
-0.3817325249463203 0.9232902846926035 0.04260668480833878
-0.4056699329391545 0.9122474965352526 0.05688945925481868
-0.4321992533912252 0.8986487147244306 0.07506192704824373
-0.4617690229869273 0.8816130772744084 0.09761020125194889
-0.4947872842795689 0.8599827772673607 0.1249606582839798
-0.5315624207052603 0.8322667196865813 0.157395998030766
-0.5722083855091521 0.7966052007708362 0.194930032724218
-0.6165072119657642 0.7507890429158763 0.2371385051645178
-0.6637336380521061 0.6923824060351955 0.2829562890819512
-0.7124691984646616 0.6190082065751518 0.3304791694369498
-0.7604687444522192 0.5288395836950072 0.3768500808392591
-0.8046807553306918 0.4212733427010129 0.4183511117828437
-0.8415319780130217 0.2976298324533805 0.45082193027321
-0.86751956897178 0.1615746120418496 0.4704289980374746
-0.879993919753858 0.01892163452222429 0.474607914960599
-0.8778416255150415 -0.1233105171144239 0.4628051392131275
-0.8617497364413195 -0.2583112508469005 0.436649389589892
-0.8339286572511813 -0.3807819960111234 0.3994597177801859
-0.7974581053492339 -0.4876344234462761 0.355349460788992
-0.7555704777961396 -0.5779650699269197 0.3083336358999508
-0.7111215843181523 -0.6525369711834728 0.2617280908797148
-0.6663316418517192 -0.713104903086989 0.2179071826730072
-0.6227484824870911 -0.7618280384206846 0.1783321828389829
-0.5813384622754753 -0.8008682736995716 0.1437205638057877
-0.542623281172308 -0.8321695310785688 0.1142534300328567
-0.5068129472690593 -0.8573698645520846 0.08976386710914908
-0.4739132407975421 -0.8777940434281711 0.06988460144260689
-0.4438047181265118 -0.8944856982422179 0.05415448096675479
-0.4163028567843722 -0.9082511665441292 0.04209215965472173
-0.3912200494542266 -0.919696410224082 0.03324734464538309
-0.3684548909953675 -0.9292465813996222 0.02723571659982568
-0.3481380093880041 -0.9371422774076493 0.02375454302994507
-0.3315617198104824 -0.9431645781993269 0.02252563842381733
0 0 0
0 0 0
-0.2468287739002217 0.9689694734632803 0.01318013168393078
-0.256844711221386 0.9663303742983265 0.01537537076166138
-0.2706111568794637 0.962490735237545 0.01952399432102488
-0.28626247737844 0.957798883135896 0.02598256162866938
-0.3034658369369572 0.95219118194726 0.03521986419666171
-0.3223984469079864 0.9453982625480379 0.04776365357118872
-0.3434365714732859 0.9369790749457169 0.06419917825441841
-0.3670473844526926 0.9262957508517963 0.08516102113257899
-0.393740076717873 0.9124579564672294 0.1113069165229652
-0.4240259252047938 0.8942469232233934 0.1432635859516027
-0.4583599501088909 0.8700301900569233 0.1815313320771057
-0.4970443228961793 0.8376876975838862 0.2263321947785725
-0.5400785560430744 0.7945884326364735 0.2773884929530057
-0.5869515602229717 0.7376834057801527 0.3336331200411813
-0.6363951322752931 0.6638065276828 0.3928894620908221
-0.6861649426618953 0.5702732964691136 0.45162599437593
-0.7329777210929227 0.4557910051303621 0.5049734844758474
-0.7727721554409605 0.3215013183018383 0.5472294748140962
-0.8013983397252437 0.1717108923745017 0.5729538118605848
-0.8156217622035841 0.01374086174893325 0.5784222763157695
-0.8140475211067935 -0.1433793676189574 0.5628223434806687
-0.7974899344452275 -0.2909658543328919 0.5285344606275701
-0.7685965158981736 -0.4225439988268708 0.4803290172419166
-0.7309747102034785 -0.5347369996057995 0.4239484807090681
-0.688281472288516 -0.6270615373953539 0.3647772515162195
-0.6436078641576825 -0.7010673724988092 0.3070398287063116
-0.5992319800391656 -0.7593580742228471 0.253567247906566
-0.5566407221301943 -0.8048227704064979 0.2059403183001934
-0.5166822658368336 -0.8401686632602348 0.1647909386016882
-0.4797474140061996 -0.8677053174606661 0.1301149522723968
-0.4459279351468446 -0.8892919121760223 0.1015291662232311
-0.4151361248409461 -0.9063699289352116 0.07845731179451051
-0.3871899535538117 -0.9200290247868265 0.06025390789647955
-0.3618795473085712 -0.9310752349393366 0.04628282751088198
-0.3390422229502739 -0.9400833786591523 0.03596682117909581
-0.3186995055411674 -0.9474174996084979 0.02882198125384425
-0.3014071763518139 -0.9531810896199787 0.02448518806331646
-0.2893458351020869 -0.9569557169975572 0.02268795748335581
0 0 0
0 0 0
-0.1971527123697967 0.9802691875635884 0.01425229520652265
-0.2057205054933242 0.9784731450100054 0.01641274242164729
-0.2169880036265279 0.9759492190027184 0.0209601576844612
-0.2296761220797248 0.9728588114505204 0.02818886179857973
-0.2436426625258756 0.969098737177531 0.03854725150015439
-0.2591143006613826 0.9644127807418184 0.05260957645329729
-0.2764755151390403 0.9583903370407235 0.0710580846601572
-0.2962027148487086 0.95042197171492 0.09466798507297972
-0.3188360759966039 0.9396264922724787 0.124280375211877
-0.3449526359873294 0.9247529279976432 0.1607473206158605
-0.3751193610245934 0.9040632055186002 0.2048296497383463
-0.4098064784546481 0.8752131867269674 0.2570224270288992
-0.4492409293347424 0.8351736685529793 0.317281469307955
-0.4931848237505629 0.7802718139855707 0.3846357054692044
-0.5406452845864124 0.7064807744667155 0.4567139055945048
-0.5895738857356901 0.6101097000379051 0.5293097270768562
-0.6366989827644731 0.4889747352291848 0.5962533971846476
-0.6777129720286527 0.3438727583941097 0.6499666557435975
-0.7080001256146012 0.1797493487256898 0.6829538738175506
-0.7238263513982255 0.005664662471501977 0.6899589296622051
-0.7235056843275459 -0.1669628673474094 0.669823055495151
-0.7078925795303749 -0.3272615811579564 0.6259296712441623
-0.6799202694468451 -0.4674939029742284 0.5649405967685907
-0.6435250483796119 -0.5841330768711791 0.4946352803966036
-0.6025742186670899 -0.6773574672506204 0.4220084982053918
-0.5602034897964544 -0.7497236922842747 0.3522590456574642
-0.5186089495371655 -0.8048225464679927 0.2886267938995489
-0.4791345079588009 -0.8463286753175386 0.2327184922139569
-0.4424775981179699 -0.8774929511997416 0.184985663656726
-0.4089003107288672 -0.9009597181786888 0.1451623990750103
-0.3783984573939466 -0.9187692767534513 0.1125949534207507
-0.3508208092808641 -0.9324425230416861 0.08646213621680691
-0.325948659391857 -0.9430870989873535 0.06591050875443238
-0.3035524981525308 -0.9514950184813865 0.05013093526419857
-0.2834479829192869 -0.9582185686468259 0.03839812077973747
-0.2655916827969595 -0.9636159750599176 0.03008838045496084
-0.2503359719065399 -0.9678441326657456 0.02469080869671555
-0.2393021895741225 -0.9706989466364941 0.02186360134631672
0 0 0
-0.1075268047215726 0.9941005846918867 0.01421315523089066
-0.1369057377684169 0.9904744251530949 0.01473879519265609
-0.1504049108968143 0.9884750625326076 0.01718759812417284
-0.1606249555295007 0.9867660723252003 0.02218878475813428
-0.1704885871810409 0.9848995708187792 0.03010775717313078
-0.1809101683209806 0.9826263504979056 0.04143629212708438
-0.1923816253636303 0.9796741637921409 0.0568141093445676
-0.20533764335303 0.9756557125205974 0.07702196341400751
-0.2202482000960868 0.9699935383463197 0.1029721609019648