# OOMMF: rectangular mesh v1.0
# Segment count: 1
# Begin: Segment
# Begin: Header
# Title: 
# Desc: time = 3.4599999999999996e-09
# Desc: stepsize = 2.958521814795988e-14
# Desc: step = 22142
# meshunit: m
# valueunit: (none)
# valuemultiplier: 384000.0000000001
# xmin: 0
# ymin: 0
# zmin: 0
# xmax: 9.357999999999999e-08
# ymax: 9.357999999999999e-08
# zmax: 2.3395e-08
# ValueRangeMaxMag: 1
# ValueRangeMinMag: 0
# meshtype: rectangular
# xbase: 1.16975e-09
# ybase: 1.16975e-09
# zbase: 1.16975e-09
# xstepsize: 2.3395e-09
# ystepsize: 2.3395e-09
# zstepsize: 2.3395e-09
# xnodes: 40
# ynodes: 40
# znodes: 10
# End: Header
# Begin: Data Text
0 0 0
0 0 0
0 0 0
0 0 0
0 0 0
0 0 0
0 0 0
0 0 0
0 0 0
0 0 0
0 0 0
0 0 0
0 0 0
0 0 0
0 0 0
0 0 0
-0.9862556792434914 0.1646645924576977 0.01361275691030796
-0.9909572613379579 0.1333781256530858 0.01462811672238225
-0.9957247830028952 0.09109638118769711 0.01528416986108147
-0.9988859811762949 0.04454778107907354 0.01556572550191749
-0.999872482849871 -0.003206384786584796 0.01564407671403094
-0.9986303051758844 -0.04989352621383478 0.01575276567048504
-0.9955926584399795 -0.09238017866283735 0.0161604780447987
-0.9921634728191845 -0.1237800756351665 0.01703338131808576
0 0 0
0 0 0
0 0 0
0 0 0
0 0 0
0 0 0
0 0 0
0 0 0
0 0 0
0 0 0
0 0 0
0 0 0
0 0 0
0 0 0
0 0 0
0 0 0
0 0 0
0 0 0
0 0 0
0 0 0
0 0 0
0 0 0
0 0 0
0 0 0
0 0 0
0 0 0
0 0 0
0 0 0
-0.9268732947085228 0.3750533560192791 0.01552017058035559
-0.9382285409725036 0.3456117551297965 0.01672482049854011
-0.95240430528199 0.3043524008971267 0.01719463138553323
-0.9666734069928651 0.2554628841924565 0.01677018225535257
-0.9805495991339944 0.1956216056050867 0.01595841654583469
-0.9890957377711251 0.1463518482586786 0.01645472680605269
-0.9951135871048352 0.09725849790014476 0.01702155532125543
-0.9987418369708708 0.04704927000074394 0.01735250058197145
-0.9998405444628359 -0.003710612302307391 0.01746759870735799
-0.9983793109956502 -0.05415584183721588 0.01748988767124673
-0.994454648522711 -0.1036942571845852 0.0175343394089408
-0.987979015976703 -0.1535948469586888 0.01749534159261187
-0.9766367134654488 -0.2142610690894763 0.01652041718726276
-0.9643405148897218 -0.2642396887734162 0.01499193847219101
-0.9517373740255745 -0.3065871878455531 0.01415157700960532
-0.9414709813043382 -0.3367841508795808 0.0144508504305424
0 0 0
0 0 0
0 0 0
0 0 0
0 0 0
0 0 0
0 0 0
0 0 0
0 0 0
0 0 0
0 0 0
0 0 0
0 0 0
0 0 0
0 0 0
0 0 0
0 0 0
0 0 0
0 0 0
0 0 0
0 0 0
0 0 0
-0.8773060259005691 0.4797174003197151 0.0143301342995679
-0.8924513259893229 0.4508810597949409 0.01539157750491995
-0.9144091351659691 0.4044635741080231 0.01628345002717331
-0.9319789997886477 0.3620833683516578 0.01762890569686322
-0.9483936390751646 0.3165466057545159 0.01864810304189908
-0.9635714554876094 0.2667606030511136 0.01920496886995058
-0.9769681308221335 0.212481668468361 0.01961662363425159
-0.987081147208503 0.1589275616142227 0.02031843952922414
-0.9942344768991039 0.1051556174845397 0.02097858566752896
-0.9984796723045821 0.0508057887041387 0.02138026727345608
-0.9997617174556613 -0.003919351185385909 0.02147433343300365
-0.998052079739061 -0.05863960984357967 0.02129418432171597
-0.9933600721872397 -0.1131384938183059 0.02086739563736799
-0.9856238766812093 -0.1677528930571468 0.0201131943475258
-0.974550609991339 -0.2233750213329616 0.01883370409685108
-0.9613769625789217 -0.2746906124456341 0.01730327300740403
-0.9466623080545503 -0.3218224814347688 0.01614821822985254
-0.9305744023693351 -0.3657689095928524 0.01563286378787856
-0.9102865805892169 -0.4136935492914517 0.01536191634634082
-0.8961423547494897 -0.4434957090420786 0.015506001589815
0 0 0
0 0 0
0 0 0
0 0 0
0 0 0
0 0 0
0 0 0
0 0 0
0 0 0
0 0 0
0 0 0
0 0 0
0 0 0
0 0 0
0 0 0
0 0 0
0 0 0
0 0 0
0 0 0
-0.8397345966721961 0.542800909966505 0.01459381003433345
-0.8610778076864164 0.5082416461817632 0.01534399545119193
-0.8819422657887745 0.4710557724934876 0.01686116887780029
-0.9036752012520187 0.4278138831585772 0.01861214707932757
-0.9237613738446154 0.3824164947230201 0.02055599076830303
-0.9422729475576026 0.3340968223506245 0.02238315429786945
-0.9589767953209163 0.2824705575165917 0.02395600493176721
-0.9734037405764321 0.2276917571814305 0.0253302495732328
-0.9848592880381551 0.1713073454556002 0.02657021185337842
-0.9931278054320438 0.113750235485199 0.02753263526787216
-0.9980736340413371 0.05532456001797052 0.02807515076249226
-0.9995978159416979 -0.003578825922911954 0.02813180352555582
-0.99765940535744 -0.06251805369314775 0.02769844515960011
-0.9922810184233932 -0.1210806824530171 0.02679270074749672
-0.9835358322949574 -0.1789159746992035 0.0254232293247548
-0.9715846438128706 -0.235510030255357 0.02362849034826216
-0.9570232471388396 -0.289203172255682 0.02163399161231091
-0.9403142135500148 -0.3397318057939336 0.01978585170797485
-0.9217393225878121 -0.3873787154531343 0.01828529489072049
-0.9013342618244922 -0.4327851195344222 0.01713443231838453
-0.8815342933518788 -0.471832912940765 0.01646183192830463
-0.861328699643746 -0.5077884927101121 0.01623939165133941
0 0 0
0 0 0
0 0 0
0 0 0
0 0 0
0 0 0
0 0 0
0 0 0
0 0 0
0 0 0
0 0 0
0 0 0
0 0 0
0 0 0
0 0 0
0 0 0
-0.7658076646971109 0.6428843760260625 0.01543696060555266
-0.7863547772901036 0.6175639415725958 0.01615370862528327
-0.8176049940483793 0.5755457415539202 0.01640649524723161
-0.8435606644738741 0.5367364814518225 0.01787050170288092
-0.867864224875978 0.4963928346008847 0.02014549421871438
-0.8914907285549184 0.4524619843501165 0.02285680683243931
-0.9138180054815255 0.4053049125198583 0.0257794636297232
-0.9344966463654203 0.3548150656467031 0.02867554919976418
-0.9531245474502821 0.3009477221389108 0.03136981968542055
-0.9692052603385991 0.2439291130481833 0.03376020052538933
-0.9821909548698347 0.1844525711435609 0.03575160374601013
-0.9916946435108737 0.1231168404964472 0.03720184965849459
-0.9974449661988175 0.06050629615713438 0.03798062045286783
-0.9992734156090024 -0.002760137902950201 0.03801345151225274
-0.9971202742481099 -0.0660357783183274 0.03728853262420408
-0.9910396840055676 -0.1286681897616201 0.03584468816452938
-0.9812024234564424 -0.1900049617040867 0.03376268252127537
-0.9679124712483619 -0.2493456001974038 0.03118043720163705
-0.9516513509140652 -0.3058717305486083 0.02832297220691922
-0.9329015100126873 -0.3592307147261706 0.02545714464295521
-0.9120959459256432 -0.4093429704815523 0.02278854851333838
-0.8896514926584451 -0.4561829436380788 0.02042898784319811
-0.866261379887185 -0.4992507313409689 0.01843716278220053
-0.8411621129522883 -0.540525232926184 0.01669647578790879
-0.8110536750052805 -0.5847847617997962 0.01478913882496541
-0.791100112499352 -0.6115272058642692 0.01396740818305513
0 0 0
0 0 0
0 0 0
0 0 0
0 0 0
0 0 0
0 0 0
0 0 0
0 0 0
0 0 0
0 0 0
0 0 0
0 0 0
-0.718651301739725 0.6952233492430937 0.01431087610922945
-0.743837346625938 0.6681813500740191 0.0154817692058999
-0.7693675451884715 0.638577123080341 0.01711251849085637
-0.7975369120706036 0.6029687738513114 0.01906650584486621
-0.8248634053871898 0.5649110860858232 0.02181346534560519
-0.851422436864148 0.5238699022773173 0.02530137332773586
-0.8772487008613117 0.4791409854039487 0.02930243920347595
-0.9019271245962992 0.4305813920706947 0.03357270796218376
-0.9249800715187695 0.3781251044454914 0.03785858794537759
-0.9458726443234503 0.3218191221362706 0.04192127560086567
-0.9640166487550325 0.2619113878131133 0.04554476761303252
-0.9788148032618946 0.198914840563672 0.04852285151253161
-0.9897561696955347 0.1334790286330116 0.05065642570110274
-0.9964512528225219 0.06635710957644703 0.05178450305917284
-0.9986553969114877 -0.001618777826944119 0.05181484128997413
-0.9962857499819004 -0.06957311606976516 0.05073742113415758
-0.9894284935451146 -0.1366274294765233 0.04862305703760778
-0.9783352649102669 -0.2019388040693989 0.04561610290213749
-0.9634100995228482 -0.2647319924035351 0.04192794217976883
-0.9451819131975079 -0.3243461436648237 0.03782499245282261
-0.9242200158784256 -0.3803801681261759 0.03359002747816925
-0.9010866603743545 -0.4326366085898987 0.02946854939122619
-0.8763263209674109 -0.4810351002056336 0.02564003802410892
-0.8504533001230082 -0.525581250355909 0.02221561577367306
-0.8235850938559774 -0.5668665858106999 0.01923192838903284
-0.7958041762098685 -0.6053221561802961 0.01675709891864991
-0.7705408733798458 -0.6372074461741657 0.01527851403840701
-0.7458633967589721 -0.6659318803300901 0.01491724288193554
0 0 0
0 0 0
0 0 0
0 0 0
0 0 0
0 0 0
0 0 0
0 0 0
0 0 0
0 0 0
0 0 0
-0.6651498718486685 0.7465857552045728 0.01361462835765653
-0.6920667072059097 0.7216830834777147 0.01473769993135932
-0.7188807080058417 0.6949313458375297 0.01676162967790141
-0.7463538129252596 0.6652620480717485 0.01955487988479716
-0.7749413142882073 0.631611991275989 0.0230705848570316
-0.803709657205658 0.5943900355466496 0.02740935163800798
-0.8323205437207338 0.5533396698337127 0.03252264270841927
-0.860472561664502 0.5080605009284117 0.03822954379666151
-0.8876880775189352 0.4583115097711948 0.04427682285332404
-0.9133799450847877 0.4039805412558891 0.050366637802307
-0.9368793967118778 0.3451102063227048 0.05617776703187541
-0.9574627692358181 0.2819526704537464 0.0613818959570284
-0.9744020084348476 0.2150110054626387 0.06565815629516006
-0.987040368474472 0.1450150829865736 0.06871634964239264
-0.9948573259716499 0.07288551456011795 0.07033208889152161
-0.9975202163283647 -0.0003192141461716699 0.07037979907999878
-0.9949177700453435 -0.0734716075706449 0.06885167920236569
-0.9871708571603014 -0.145451910623716 0.06585924740919734
-0.9746187748888135 -0.2152236188641152 0.06162010643663209
-0.9577828528600991 -0.2818992815883042 0.05643404829681721
-0.9373108314375648 -0.3447941204999356 0.05064997273934434
-0.9139049317944752 -0.4034681093573337 0.04462354057393963
-0.8882667346444465 -0.4576968824354597 0.03867521083268813
-0.8610621019451916 -0.5074236919551784 0.03306438319860437
-0.8328847464726251 -0.5527385102989797 0.02798460872863995
-0.804183533921776 -0.5939131550731169 0.02357982188607509
-0.7754494423058799 -0.6310927963193839 0.02000112150056141
-0.7477411264588661 -0.6637606788182215 0.01746336327283982
-0.7208343644469687 -0.6929220338121166 0.01602729203622816
-0.6942582582500749 -0.7195578309967586 0.01555630749284099
0 0 0
0 0 0
0 0 0
0 0 0
0 0 0
0 0 0
0 0 0
0 0 0
0 0 0
-0.6108909483255421 0.7916142455612737 0.01261489113607543
-0.6364947760374261 0.7711550915681795 0.01393645670674898
-0.6629612904860867 0.748480291581024 0.01611149998627922
-0.6905010921336182 0.7230742151861949 0.01928525590050791
-0.7191493747852103 0.6944588021741132 0.02347655913750592
-0.7488650956954187 0.6621014424286729 0.02868359083102953
-0.7792523036608072 0.6257375287243035 0.03490547786990113
-0.8099566845608726 0.5849797683410303 0.04205757680648766
-0.8405677977256306 0.5393986937444891 0.04994823934256372
-0.8705316162471985 0.4886481367919036 0.05828982350154138
-0.8991535139055122 0.4325183547813237 0.06671455020178625
-0.9256199463784484 0.3709900088163148 0.07479390499785982
-0.9490360845435741 0.304295960587184 0.08206386905651464
-0.9684887259861336 0.2329702895211722 0.08805925186019327
-0.9831331853857028 0.1578571751713429 0.0923593635766566
-0.9922854733642344 0.08007935507020397 0.09464056340627282
-0.9955031930120559 0.0009655722934795965 0.0947230720202159
-0.992639343699247 -0.07805474798855071 0.0925990802155804
-0.9838579290935231 -0.1555726128937873 0.08843493357946122
-0.9696084946945042 -0.2303155493108188 0.08254765146212895
-0.9505658299225964 -0.301239421219771 0.07536188749455836
-0.9275481163206826 -0.3675835179748674 0.06735613723465443
-0.9014302262381079 -0.4288841839720277 0.05900766020578214
-0.8730723890837183 -0.4849426597308112 0.05074662740374605
-0.8432696702593346 -0.5357736630544609 0.04292837287759193
-0.8127163633442248 -0.5815570174945623 0.03582664030253065
-0.7819892815448499 -0.6225864421177433 0.02964600546682846
-0.7516190985019101 -0.6591404367751406 0.02454822549701949
-0.7221816924994187 -0.6913946366007842 0.02066541793296444
-0.6939334533470451 -0.7198127336398215 0.01805521575089564
-0.6670796009700143 -0.7447990027910036 0.01671081719164586
-0.6416729773573263 -0.7667981574655123 0.01662455523854531
0 0 0
0 0 0
0 0 0
0 0 0
0 0 0
0 0 0
0 0 0
0 0 0
-0.5842258856691902 0.8114803362446825 0.01340814686178625
-0.6046912943028738 0.7963117834104447 0.01536171201369219
-0.6303648950710788 0.7760768329584363 0.01857009443245671
-0.6583024788705364 0.752400207470722 0.02306022790262301
-0.6878472797663922 0.725280927507492 0.02887379282058652
-0.7187704869795404 0.6943135074174934 0.03602416501200757
-0.7508068741719616 0.6590222299642103 0.0444830092184336
-0.7836317580534028 0.6188620012682299 0.05413955260633641
-0.8168029227855732 0.5732692021459581 0.0647719630695346
-0.8497074469621549 0.5217429918488524 0.07603620870127994
-0.8815466737965668 0.4639233236128893 0.08746777535858261
-0.9113496232099105 0.3996751266523202 0.09849699188607546
-0.9380162250753741 0.3291766523015113 0.1084817637896548
-0.9603964317652876 0.2529931961573916 0.1167610232507852
-0.9774028637610005 0.172109311822837 0.122727448827328
-0.9881398431914789 0.08790043937961577 0.1259093445872462
-0.9920226265176009 0.002036837862418547 0.1260434836421238
-0.9888585210604838 -0.08366881492096379 0.1231192703673715
-0.978869316357766 -0.1674409263665558 0.1173814196148139
-0.9626502488579124 -0.2477096812106901 0.1092904945926091
-0.9410782185191243 -0.3232351757884098 0.09945254024863688
-0.9151939926377048 -0.393168371322142 0.08853579858876671
-0.8860856782943611 -0.4570486437504919 0.07719266783482372
-0.8547948618689571 -0.5147520472809124 0.06600056016837565
-0.822253396873487 -0.566415970278115 0.05542833159958305
-0.7892493974764492 -0.6123603568086616 0.04582774260456437
-0.7564237610416324 -0.6530092064945064 0.0374442247221901
-0.7243086861108838 -0.6888036532627223 0.03043771470154167
-0.6933800599549924 -0.720141696413156 0.02490039244655291
-0.6640871159320099 -0.747364002106478 0.02086506190963992
-0.6373155529558028 -0.7703847507168085 0.01833635251733316
-0.6162334485779345 -0.7873730004378762 0.01732325128843007
0 0 0
0 0 0
0 0 0
0 0 0
0 0 0
0 0 0
0 0 0
-0.5075057900310649 0.861521044435076 0.01481091085787502
-0.5401162555790079 0.8414519254522342 0.0152672070805046
-0.5663500125767575 0.8239732715947019 0.01776825685962702
-0.5932820586600669 0.8046925235066211 0.02205315135345647
-0.621829473365662 0.7826509060764918 0.02802972121569536
-0.6521154142145458 0.7572780055436921 0.03571426694696093
-0.6841112983419888 0.7279801917786211 0.04512839304473731
-0.7176764000113777 0.6941015979694791 0.05624550260175996
-0.7525463003020036 0.654920307822764 0.0689453138589002
-0.7882887969124975 0.6096850755762688 0.08297518473499321
-0.8242552777683279 0.5576867547862241 0.09792201288304188
-0.8595515592594178 0.498354453699684 0.1131987431573008
-0.8930392718900811 0.4313738994443796 0.128052402321016
-0.9233796042203903 0.3568176747408907 0.1416024487863785
-0.9491299594360274 0.2752617960719634 0.1529158713940497
-0.9688928448327195 0.1878511121206105 0.1611167741329541
-0.9814966631422734 0.09627748488303986 0.1655141871417017
-0.9861695225322881 0.002652514339359667 0.1657185475320074
-0.9826597904439329 -0.09071122738490629 0.1617133558832083
-0.9712683386401409 -0.1815632601266579 0.1538590163994287
-0.9527846482451087 -0.2679584111790451 0.1428275321737583
-0.9283493884064026 -0.3484250836208831 0.1294888958530369
-0.899284991385513 -0.4220327221755367 0.1147819048537875
-0.8669362556338673 -0.4883660021629399 0.09960008332785988
-0.8325491497923678 -0.5474356816618483 0.08471179152534068
-0.7971971331253687 -0.5995627129400729 0.07071975812057402
-0.7617510447444423 -0.6452635137794865 0.05805466058552796
-0.7268846412670789 -0.6851499708991526 0.04699186809353168
-0.6931068116080308 -0.7198494584049362 0.03767897207553606
-0.6607981769234373 -0.7499573270052757 0.030162510601124
-0.6302240793925431 -0.7760296244378476 0.02440556798507654
-0.6015031121530986 -0.798612804367849 0.02028779854632905
-0.5739980409930922 -0.8186687586219009 0.01754173858452772
-0.5411225803055314 -0.8407978563642047 0.01566262483882312
0 0 0
0 0 0
0 0 0
0 0 0
0 0 0
-0.4434423278121526 0.896192749565106 0.01405195827897873
-0.4716747473905836 0.8816448902297959 0.01500733839559544
-0.4989812073570077 0.8664469260861918 0.0169552051102848
-0.5251978664610826 0.8507289937615767 0.02067317677914204
-0.5522316716741157 0.8332742360692287 0.02634821252484692
-0.5809131608114564 0.813252464295472 0.0340636010043618
-0.6115648506621167 0.7899750448581716 0.04390742461079315
-0.6443034166390184 0.7627205540288892 0.05595054753218665
-0.6791036122394397 0.7306778094616779 0.07020130058359254
-0.7157839745461863 0.692936953087801 0.0865544962914041
-0.7539572452043879 0.6485199797268099 0.1047392395377599
-0.7929695447425411 0.5964528239061474 0.1242711952352158
-0.8318499660497769 0.5358814060816022 0.1444186712270605
-0.8692916786003995 0.4662310365669304 0.1641968271856217
-0.9036880844930414 0.3873955503780757 0.1824076026172304
-0.9332451723128102 0.2999206182291967 0.1977399077471443
-0.9561756542749785 0.2051243487810997 0.2089308969706159
-0.9709508382151342 0.1050928559762632 0.2149650236482207
-0.976553050950247 0.002512723696857161 0.2152622235771692
-0.9726544186884484 -0.09964408641674931 0.2097961816811915
-0.9596634149141124 -0.1985072086863905 0.1991005227891716
-0.9386263633643298 -0.2916598249374186 0.1841605183391027
-0.9110228120536956 -0.3773663379437621 0.1662290074105316
-0.8785230792397896 -0.4546408053016642 0.1466251594975845
-0.8427723549536102 -0.5231783047132895 0.1265670541779099
-0.8052391176079343 -0.5832041653478811 0.1070647700921092
-0.7671355491297261 -0.6352984708725514 0.08887576817350712
-0.7293978368356869 -0.6802362059784623 0.07250861807707576
-0.6927072291885386 -0.7188622640382044 0.05825581491837647
-0.6575319995771908 -0.7520064604640052 0.04623800333512888
-0.6241682963952557 -0.7804393632855278 0.03644637169217382
-0.5927545825716185 -0.8048689369863437 0.02877497375879545
-0.5632156377795471 -0.8259887039551912 0.02303923390655841
-0.5349768366928355 -0.844653327948819 0.01898788527224759
-0.5063978095778325 -0.8621443931308245 0.01637998314575412
-0.4777671230109586 -0.8783530983871068 0.01531047757583871
0 0 0
0 0 0
0 0 0
0 0 0
-0.413745357305111 0.9102866051850323 0.01389516927477251
-0.4327645433686752 0.901371198869038 0.01564646453019685
-0.456066115661185 0.8897454202264696 0.01888876204892444
-0.480808729200198 0.8764966856155567 0.02401095645396313
-0.5070733424630554 0.8613341248050904 0.03130736031021516
-0.5352820512452613 0.8436775642014611 0.04100357640199861
-0.5657640432275348 0.8228429286637153 0.05329692429166438
-0.5987319293423903 0.7980280969896129 0.06834642054325607
-0.6342742818486632 0.7682838706206178 0.08623241577019955
-0.6723170234780457 0.7325043073832455 0.1068983611034927
-0.7125562669710659 0.6894508971382661 0.130080847304662
-0.7543745165465128 0.6378252614547333 0.1552353846112923
-0.7967591832215356 0.5764050704448247 0.1814717573553735
-0.8382511083640224 0.5042515665467473 0.2075221360762234
-0.876960144038099 0.4209774826784458 0.2317733048614422
-0.9106860992063196 0.3270295574398048 0.2523935365121348
-0.9371646586163459 0.2238999988588059 0.2675653063301262
-0.9544133808966594 0.1141613937010286 0.2757938986882167
-0.9610957243871504 0.001249807598673887 0.2762126835351783
-0.9567854181738596 -0.1109905928793347 0.2687801180559418
-0.9420339384290609 -0.2188802385812891 0.2542901885768102
-0.9182200356272538 -0.3194153482533329 0.23419180487986
-0.8872474863155234 -0.4105731164377263 0.2102893579936894
-0.8512022951403521 -0.4913658804116153 0.184429456202405
-0.8120664126424875 -0.561696210669369 0.1582577277027334
-0.7715361595596675 -0.6221104290523811 0.1330810600956474
-0.7309455710464431 -0.673540278744502 0.1098274331684368
-0.6912678244023029 -0.717087669543725 0.08907339184322006
-0.653161664957326 -0.7538724878011877 0.07110633984829544
-0.6170345674492752 -0.7849412504661973 0.05599621316881927
-0.5831012353810212 -0.8112254087288029 0.04366102987691804
-0.5514226707360946 -0.8335361353813374 0.03391974663550427
-0.5219204189927761 -0.8525813911553567 0.02653389707528118
-0.4944091366626698 -0.8689695235772392 0.02125023949086468
-0.4690302062627226 -0.8830012905853961 0.0178713860031172
-0.4488137741858397 -0.8934758596951248 0.01634271223265436
0 0 0
0 0 0
0 0 0
-0.3371278495687851 0.9413696052085452 0.0129645452922111
-0.3660030947608806 0.9305061558880816 0.01414314250239143
-0.3875291337766855 0.9217051190719786 0.01675839941047867
-0.4094046476797104 0.9121068890819028 0.02118625374116846
-0.4325975116100065 0.9011600424459146 0.02774834855819998
-0.4575407223411603 0.8884272054470767 0.03679114052359212
-0.4846493106236319 0.8733545543030624 0.04865046957777037
-0.5142984664232112 0.8552465030244111 0.06364358961630645
-0.5467978874374462 0.8332348202627945 0.08204757519618831
-0.5823606473444857 0.8062437179184225 0.1040535618880492
-0.6210474529568035 0.7729676164929538 0.1296962799353487
-0.6626807936253706 0.7318806441818204 0.1587604750309468
-0.7067333391510245 0.6813022835258417 0.1906703589835515
-0.7522064735996443 0.6195479293318349 0.2243786628345553
-0.7975315801638319 0.5451884614817338 0.2582884436217796
-0.8405462806058935 0.4574184391596204 0.2902590595939679
-0.8786088998019899 0.3564801532527579 0.3177550967736429
-0.9088965507296085 0.2440195514693258 0.3381737993584495
-0.928869247228376 0.1231994339407884 0.349319081972427
-0.9367871988704648 -0.001573256509275781 0.3498960829966289
-0.9320982217271191 -0.1253056230812545 0.3398402652384805
-0.9155356618800911 -0.2432690112070101 0.3203351994585462
-0.8888922197416157 -0.3517416503618418 0.2935105331730882
-0.8545804483050787 -0.4484102539597299 0.2619551517310943
-0.8151579133201371 -0.5323788776282459 0.2282330103355968
-0.7729592511125203 -0.6038950922101372 0.1945371782567052
-0.729891108951885 -0.6639616792556214 0.1625234061698277
-0.6873728771082852 -0.7139689491618213 0.1332924133198983
-0.6463731075608833 -0.7554162072136998 0.107462364113929
-0.6074912895543203 -0.7897353863812987 0.08527808987547499
-0.571048728593743 -0.8182002002472202 0.06672167479071439
-0.537167580473375 -0.8418953161027745 0.0516068523801768
-0.505829129902945 -0.8617218657441846 0.0396524581834537
-0.4769131584938993 -0.8784197600720212 0.03053791692937102
-0.4502343810641294 -0.8925892517123118 0.02394639504090232
-0.4255757234408728 -0.9047107109649267 0.01959165850851642
-0.4021932483829818 -0.9153935284999832 0.01718368224494292
-0.3726894213790771 -0.9278118993318091 0.01636076558200259
0 0 0
0 0 0
-0.3070398173020799 0.951612459610609 0.01266006733600023
-0.3222235730627835 0.946550429343028 0.01463740664126503
-0.3400700511775959 0.9402235877020148 0.01821991824401426
-0.3594966944803488 0.9328429787490039 0.02379293290849247
-0.3805612859807753 0.9242095050873731 0.03177889738192277
-0.4035474959341868 0.9139658842299672 0.04261198175374369
-0.4288403973723191 0.9015967507583478 0.05673810539259114
-0.4568561397315245 0.8864065408526759 0.07460503952953099
-0.4879966720156665 0.8674796778624411 0.09663465526046675
-0.5226046016716407 0.8436312813840988 0.1231693605644222
-0.560896496487888 0.8133633704891235 0.1543863587697594
-0.6028618809266421 0.774848982721589 0.1901751994896011
-0.6481243561494785 0.7259779748876307 0.2299799968342431
-0.6957752862690987 0.664510218330742 0.2726223042070895
-0.7442141052053605 0.5883844663418474 0.3161472526861553
-0.7910622420231576 0.4962059706175377 0.3577711055532601
-0.8332459769750521 0.387862923707241 0.3940348896584681
-0.8673351976372692 0.2651018999375214 0.4212489021814009
-0.8901433710824495 0.1317830054117735 0.436208686757397
-0.8994436411108557 -0.006447617419085932 0.4369892043230162
-0.8945255185691827 -0.1431037768178816 0.4234919192723663
-0.8763363300411822 -0.2721182592907583 0.3974748917988649
-0.8471509276999862 -0.3889154145104549 0.362049866804579
-0.8099497728917169 -0.4909240767959344 0.3208970492458841
-0.767781736654595 -0.5774853525321665 0.2775281471679098
-0.7233111568796922 -0.6493730096157193 0.2348098479961695
-0.6786046066490937 -0.7082057047666066 0.194783129584321
-0.635108505956854 -0.7559441461768389 0.1586998220610933
-0.5937349973361186 -0.7945479229568706 0.1271705589482163
-0.5549863543340898 -0.8257854468294032 0.1003421262866124
-0.5190755745371819 -0.8511565324881999 0.07805834434291994
-0.4860244892022704 -0.8718840195418061 0.05998710164106524
-0.4557367841034258 -0.8889399942729572 0.04571291061682487
-0.4280547264169473 -0.9030824862437481 0.03480192856613227
-0.4028192981970211 -0.914885681289211 0.02684777778579273
-0.3799587014858479 -0.9247534925540896 0.02150263179709081
-0.3596338733062586 -0.9329103076833776 0.01848878007991607
-0.3431484613944565 -0.9391175300105977 0.01753277700225521
0 0 0
0 0 0
-0.2648585921208491 0.9641928745948435 0.01349172932924203
-0.2752805342650075 0.9612345433856208 0.01577276313804545
-0.2897511440564914 0.9568923650327169 0.02003188109108727
-0.3063685924398947 0.9515412071753881 0.02660106414417013
-0.3247808143250187 0.945106640615948 0.03592854728506023
-0.34515129205279 0.9372921703584214 0.04851775941950473
-0.3678427753060234 0.9276189861130897 0.0649207921831324
-0.3933041917968181 0.9154032100002232 0.08572500123265434
-0.4220155219305138 0.8997032582552451 0.111521057807982
-0.4544395368287129 0.8792500856399986 0.1428425506246636
-0.4909530246781802 0.8523741310653498 0.1800651777827568
-0.5317387926304618 0.816952835470934 0.2232530425949429
-0.5766267837403761 0.7704204753976742 0.2719445593521791
-0.624886023903773 0.7099051182086926 0.3248879503318566
-0.6749972982709503 0.6325740090541089 0.3797746310591715
-0.7244833978487476 0.5362512955693128 0.4330800783247441
-0.7699269850469168 0.4202798762822212 0.480184613756798
-0.8073205709319483 0.2864116958891633 0.5159475130359735
-0.8328006919365184 0.1392991275671754 0.5357599841058303
-0.8435977966576114 -0.01387158842600334 0.536796364098121
-0.8388085609702342 -0.1647218591226719 0.5189093438840887
-0.8195974050240502 -0.3055248411475208 0.4846799615412474
-0.7887368159672865 -0.4307325885872074 0.4385928319828653
-0.7497651424981719 -0.5376022125570045 0.3857928098714502
-0.7061705561144416 -0.6259135651993711 0.3309914720599802
-0.6608646757445806 -0.6971820631778776 0.2778399739707156
-0.6159851888688076 -0.7538084635966993 0.2287685452684502
-0.5729303979055277 -0.7984229152532952 0.1851259235067919
-0.5325040379542985 -0.8334869265251098 0.1474414896631651
-0.4950828987381727 -0.8611085776970075 0.1156933048782179
-0.460762863868617 -0.8829961559502062 0.08952860915232083
-0.4294699544120345 -0.9004852264695364 0.06842452168216027
-0.4010404781507886 -0.9145948136102516 0.05179634930973034
-0.3752849301197101 -0.9260858370602925 0.03906716807475982
-0.352061681829865 -0.9355050804866162 0.02971222931482095
-0.3314127125836329 -0.9431983957284809 0.02328948761089682
-0.3139105541908583 -0.9492530869198438 0.01946126770627365
-0.301741479051859 -0.9532207236108268 0.01795360405177764
0 0 0
0 0 0
-0.2150870892092531 0.9764794603571958 0.01501357905397399
-0.2241799686924671 0.9743944287927092 0.01728695388938862
-0.2362900523828996 0.9714335753539124 0.02199590461882668
-0.2500980158072813 0.9677737755312189 0.02940921425863811
-0.2654507829878657 0.9632960427856615 0.03995767466474807
-0.2825735649901373 0.9577133981605573 0.05419619315525701
-0.3018527690263 0.9505724775555977 0.07277960390773928
-0.3237654699621434 0.9412093210184592 0.09644135258364497
-0.3488451287181475 0.9286772393594884 0.1259589665933242
-0.3776458310946834 0.9116525540211191 0.1620902433941539
-0.4106828685337995 0.8883272539504303 0.2054611189051039
-0.4483299156330224 0.8563107777940028 0.2563827969703054
-0.4906546071521782 0.8125878957382234 0.3145774438513789
-0.5371835631717733 0.7536162616721452 0.3788091202721732
-0.5866157992825375 0.6756849576197188 0.4464658352870329
-0.6365610068285058 0.5756578862129109 0.513232971102171
-0.6834601768763887 0.4521239159022709 0.5731196657708503
-0.7228980046892021 0.3067054470582781 0.6191528434572128
-0.7504320880925749 0.1449074829599734 0.6448670425314219
-0.7627723384582854 -0.02425120055351277 0.6462122243927239
-0.7587926790272422 -0.190095909547925 0.6229744901902543
-0.7398105610071886 -0.3429366445608069 0.5788564516696721
-0.7089949301681043 -0.4761876167695547 0.5201649186856573
-0.670300590346153 -0.5870839377464678 0.4539048012763246
-0.6274905677285936 -0.6760860375852704 0.3862165936283617
-0.5835676023554643 -0.7456693284846898 0.3215992942129787
-0.5406188127455822 -0.7991571061044113 0.2628292583948365
-0.4999175605324979 -0.8399104732959058 0.2112648326605336
-0.4621236646820194 -0.8708987256920965 0.1672636485574272
-0.4274836939339294 -0.8945455494750243 0.1305601445121324
-0.3959907412412549 -0.9127327259376996 0.1005500067306675
-0.3674976710187778 -0.9268743192676206 0.07648174996663334
-0.3417935460366913 -0.9380097258722203 0.05757539454303041
-0.3186590480212778 -0.9468894457372002 0.04309047070606317
-0.2979222235241732 -0.9540414559918928 0.03236122647987098
-0.2795543758566389 -0.9598092189131847 0.02481157448988731
-0.2639248398766243 -0.9643366762268087 0.01996130706964966
-0.2526743067038126 -0.9673937460709119 0.01746524533567055
0 0 0
-0.1249629495208735 0.9920396806000089 0.01554134363803485
-0.1546698890602725 0.9878368295774591 0.01598823156064111
-0.1687918976983646 0.9854770213880492 0.01855628161898578
-0.1799438865582485 0.9833896672518969 0.02376888791077812
-0.1910313257599398 0.981063672226862 0.03195471193961667
-0.2029655507721865 0.9782151834490495 0.04358944906149828
-0.2162468487032966 0.9745361994843295 0.05930005329282958
-0.231325798299808 0.9695939778774891 0.07984918975583302