# OOMMF: rectangular mesh v1.0
# Segment count: 1
# Begin: Segment
# Begin: Header
# Title: 
# Desc: time = 1.5399999999999999e-09
# Desc: stepsize = 8.859991612814078e-14
# Desc: step = 9854
# meshunit: m
# valueunit: (none)
# valuemultiplier: 384000.0000000001
# xmin: 0
# ymin: 0
# zmin: 0
# xmax: 9.357999999999999e-08
# ymax: 9.357999999999999e-08
# zmax: 2.3395e-08
# ValueRangeMaxMag: 1
# ValueRangeMinMag: 0
# meshtype: rectangular
# xbase: 1.16975e-09
# ybase: 1.16975e-09
# zbase: 1.16975e-09
# xstepsize: 2.3395e-09
# ystepsize: 2.3395e-09
# zstepsize: 2.3395e-09
# xnodes: 40
# ynodes: 40
# znodes: 10
# End: Header
# Begin: Data Text
0 0 0
0 0 0
0 0 0
0 0 0
0 0 0
0 0 0
0 0 0
0 0 0
0 0 0
0 0 0
0 0 0
0 0 0
0 0 0
0 0 0
0 0 0
0 0 0
-0.8374006127825314 0.02686148205305524 -0.5459291845041385
-0.8470707667129398 0.04520035831522541 -0.52955457111475
-0.8573659357701149 0.02579720128553924 -0.5140604600500486
-0.8626319891136411 -0.009271984724914308 -0.5057470530384762
-0.861092117123031 -0.04881803869109264 -0.5060999554701923
-0.8528353563864439 -0.08418960514286811 -0.5153483921417574
-0.839885023702111 -0.1040837105039953 -0.5326910250498164
-0.8284338377529971 -0.08580366340899151 -0.5534754807680617
0 0 0
0 0 0
0 0 0
0 0 0
0 0 0
0 0 0
0 0 0
0 0 0
0 0 0
0 0 0
0 0 0
0 0 0
0 0 0
0 0 0
0 0 0
0 0 0
0 0 0
0 0 0
0 0 0
0 0 0
0 0 0
0 0 0
0 0 0
0 0 0
0 0 0
0 0 0
0 0 0
0 0 0
-0.7823847239329104 0.2388196027496796 -0.575186353366375
-0.8102793058455644 0.2681700138568964 -0.5210876031786034
-0.8472290402234918 0.2506303933723558 -0.4683880435280113
-0.8837913326414094 0.2021769866766923 -0.4219447196093982
-0.9157400222636451 0.1200956767043915 -0.3834021909972504
-0.9288414698988772 0.0791766489180937 -0.3619179217200958
-0.9369640164164337 0.03997109737139488 -0.3471321698081445
-0.9405990700355767 -0.003139040332197189 -0.3395048392497526
-0.93922736353171 -0.04805330997145299 -0.3399159293032031
-0.9328732086599943 -0.09137662162854329 -0.3484219992827092
-0.9220643455585403 -0.1309645011686669 -0.3642054943069122
-0.9060679462457325 -0.1722339047935341 -0.3864923787419506
-0.8697157385973253 -0.2538405243325583 -0.423272397213284
-0.828981109909433 -0.3032466466397046 -0.4699274313286022
-0.7884040701265491 -0.3221005218929253 -0.5240899502987977
-0.7580637589874911 -0.2938048438050777 -0.5822525663888724
0 0 0
0 0 0
0 0 0
0 0 0
0 0 0
0 0 0
0 0 0
0 0 0
0 0 0
0 0 0
0 0 0
0 0 0
0 0 0
0 0 0
0 0 0
0 0 0
0 0 0
0 0 0
0 0 0
0 0 0
0 0 0
0 0 0
-0.7552030790339971 0.3333990500489134 -0.5643698989528514
-0.7929506133575076 0.36148017480797 -0.4904705985038769
-0.8482008307304311 0.3239952450207968 -0.4190255743413757
-0.8822201682632148 0.302538073879961 -0.3607745675108313
-0.9123098193427219 0.2690586572705043 -0.3087041180137423
-0.9390355101188729 0.2200002559317959 -0.26421998055736
-0.9601704963788126 0.1586810206824159 -0.2299846767914125
-0.9724322834978024 0.1050146142695296 -0.2082003477448365
-0.9794052487361788 0.05416760824177429 -0.1945025166042557
-0.9821967780221881 0.003116043844959462 -0.187829123177392
-0.9809361440313288 -0.04834443073386224 -0.1882208738423193
-0.9756095711521403 -0.09949649139964745 -0.1956691413470605
-0.9660240375963156 -0.1505393068566949 -0.2100844493940882
-0.9508929314233581 -0.2044578271290985 -0.2323782044313527
-0.9263468862853985 -0.2660232916031417 -0.2666703106721411
-0.896164626430161 -0.315751938719516 -0.3117525870464526
-0.862749354001347 -0.3501506160215299 -0.3647712958416563
-0.8254948600475653 -0.3726198471984535 -0.4239253301099749
-0.7663967676129159 -0.4104464064477289 -0.4941353478821559
-0.7257481404424172 -0.3836956735594815 -0.5710230001813488
0 0 0
0 0 0
0 0 0
0 0 0
0 0 0
0 0 0
0 0 0
0 0 0
0 0 0
0 0 0
0 0 0
0 0 0
0 0 0
0 0 0
0 0 0
0 0 0
0 0 0
0 0 0
0 0 0
-0.7587046916317992 0.4143300798731254 -0.5026905368198462
-0.8099185706541746 0.413706633843155 -0.4157868805333614
-0.8497409800399335 0.4035423059309134 -0.3392548808266929
-0.8878223079960659 0.3719806582373192 -0.2709279227430582
-0.9173859104880898 0.3355109275674438 -0.2140922901946056
-0.942014695641886 0.2917411778622426 -0.1658173643931038
-0.9626951528943788 0.2394951170759395 -0.1259370139809981
-0.9788281927312347 0.180993147029598 -0.09558687066133338
-0.9896015815111652 0.1226506104065182 -0.07513679283485913
-0.995911877319876 0.06517927630046938 -0.06253954392339992
-0.9983645274053307 0.00794815958160618 -0.05661357768234841
-0.9971570987552881 -0.04929299461895752 -0.05699053503373292
-0.9922710029398902 -0.1065194734826125 -0.0636542103371852
-0.9834584605067634 -0.1639825972720008 -0.07693610498065924
-0.9700395316010341 -0.2223135363117526 -0.09797958309672848
-0.9510699331507065 -0.2808286983759966 -0.1288457388707653
-0.927501360370493 -0.3332413030639801 -0.1693855378806142
-0.8999554242801279 -0.3773603903597995 -0.2183560626506033
-0.8673257911060995 -0.4144167107329527 -0.2756896116059836
-0.8258005322465606 -0.4468241196652309 -0.3440954620838347
-0.7825244980245822 -0.4582656985894665 -0.4214830476871913
-0.7280213961359294 -0.4591541926118892 -0.5090798308470053
0 0 0
0 0 0
0 0 0
0 0 0
0 0 0
0 0 0
0 0 0
0 0 0
0 0 0
0 0 0
0 0 0
0 0 0
0 0 0
0 0 0
0 0 0
0 0 0
-0.6534592338403942 0.5043238131403035 -0.5644896112492671
-0.7049113175705055 0.5395676510720883 -0.460398505946275
-0.7850210673572362 0.504531075922798 -0.3594305457713479
-0.8346098972504783 0.4776734051296087 -0.2743254225248364
-0.8712878212035495 0.4475201026207495 -0.2014529482849156
-0.9020799846458617 0.4086312937645903 -0.1388242308013922
-0.9274403225341488 0.3638140721140775 -0.08656655860969661
-0.9486374090807881 0.3134064997961929 -0.0431674875107174
-0.9662466499933708 0.2574943510565917 -0.008004408193752142
-0.9801426413025345 0.1974012448781043 0.01879231813974046
-0.9900404646526513 0.1357204366707932 0.03741445469669436
-0.996080515210516 0.07366658925709303 0.04895754124932378
-0.9984565392976984 0.01153240434459556 0.05432810307470301
-0.9972606888870219 -0.0506021157430128 0.05394946045061624
-0.992482297812013 -0.1126536472991565 0.04783350582994342
-0.9840070328912179 -0.1745403056807209 0.03557865811833281
-0.971623202682506 -0.2359724140430906 0.0162902369431865
-0.9551961418575152 -0.2957637936209108 -0.01114042025617495
-0.9350513376662396 -0.351390722452484 -0.0469420504760576
-0.9112897029639887 -0.4016024020195096 -0.09092077850505097
-0.8832277907468802 -0.4464176704103594 -0.1435964247388225
-0.8494387297312622 -0.4856262957526234 -0.2064484083400127
-0.8093800053880046 -0.5165072227430914 -0.2795072373523304
-0.7557420561831713 -0.5442183662060118 -0.364253091133199
-0.6704928761752639 -0.5797540488047079 -0.4629519909156563
-0.6148901029535123 -0.5461931682603559 -0.5688437256712364
0 0 0
0 0 0
0 0 0
0 0 0
0 0 0
0 0 0
0 0 0
0 0 0
0 0 0
0 0 0
0 0 0
0 0 0
0 0 0
-0.6317353061448888 0.5505674641922962 -0.545697691348321
-0.6949120961164168 0.5740120278559145 -0.4331366649774966
-0.746257939577446 0.5792085835581582 -0.3280495455722753
-0.798024853186807 0.5562967465174966 -0.2317115955454593
-0.8386157004274787 0.5235131008995769 -0.1505248822721273
-0.870932552332691 0.4844102519219119 -0.08260264596375484
-0.8980275898958902 0.4391902363985145 -0.02565899526472536
-0.9210609072050824 0.3888192994188646 0.02159531472272038
-0.9407069873096515 0.3337879415842601 0.0604646514894526
-0.9572122826498433 0.2744652162988331 0.09172508373564216
-0.9704647649891609 0.2116988733189662 0.1156794145473266
-0.9802249554221122 0.1468265875221777 0.1326687226301274
-0.9863624541045252 0.0808774564888428 0.1433455481164062
-0.988833938058746 0.01445154342685555 0.1483192362298745
-0.9876267502781402 -0.05207313765140955 0.1479249487753052
-0.9827386276823062 -0.1183713642062339 0.1421724649749446
-0.9741805901417013 -0.1840597604332103 0.1307447221895983
-0.9620032798937664 -0.2485364403757786 0.1130456866889305
-0.9463562040426704 -0.3107896829971553 0.08842911292371297
-0.9274967330646774 -0.3695275208100796 0.05656166120532575
-0.9055133162453443 -0.4239700097604486 0.01717745400470526
-0.8800809947286664 -0.4738458476546178 -0.03045579383100553
-0.8503981836129848 -0.5187906157281647 -0.0876311950171127
-0.8151398003586442 -0.557959583481195 -0.1556541328483131
-0.77100072451855 -0.5912122092908758 -0.2366981334469547
-0.7148967095664258 -0.6150672084926653 -0.3325883697427452
-0.6590083191827374 -0.6114699178904193 -0.4379641249726128
-0.5916689168043293 -0.5890263919078632 -0.5504323777936716
0 0 0
0 0 0
0 0 0
0 0 0
0 0 0
0 0 0
0 0 0
0 0 0
0 0 0
0 0 0
0 0 0
-0.5887586566609592 0.5959395768019772 -0.5460945568377904
-0.6573383514097515 0.623425780319362 -0.4233752333322108
-0.7105878419244875 0.6315058185251541 -0.3102665307086377
-0.7544649656322505 0.6222030961721193 -0.2089160662738859
-0.7938904256709635 0.5961395465915711 -0.1198149949612809
-0.8276538986276695 0.5594579506167078 -0.04467466371638442
-0.8565758191239139 0.5157118488591733 0.01786491081557046
-0.8818274937350631 0.4663689160462406 0.06985918292387228
-0.9040466150468494 0.4122457583974657 0.1129298565731469
-0.923485675974541 0.3537984312523918 0.1483269237636619
-0.9401108919046428 0.291411147830252 0.176836234529328
-0.9536825414153698 0.2256962027679721 0.1988739154731943
-0.9638782034498959 0.1575324519316345 0.2147611126405513
-0.9704202636759031 0.0877968407238803 0.2248915885623461
-0.973124249094276 0.01722368256612157 0.229635669231856
-0.9719009155053471 -0.05356905241956506 0.2292138020773129
-0.9667525101578235 -0.1239995451850072 0.2236374228465756
-0.9577762079269215 -0.1934421254509955 0.2127084380792805
-0.9451727968352236 -0.2611554222683949 0.1960771010151279
-0.9292430240514222 -0.326268441058327 0.1733675477739021
-0.9103271319653445 -0.3879291020953688 0.1442758626909933
-0.888657529736666 -0.445573517146391 0.1084068063366884
-0.8642243348634646 -0.4988913046347057 0.06499050076498065
-0.836689419935881 -0.5475286164963561 0.01277609818937743
-0.8052793385283428 -0.5907945609480275 -0.04986956680764049
-0.768625405271947 -0.6273679025363973 -0.1249980049345424
-0.7257096475275892 -0.6538716187110949 -0.2140033030808506
-0.6777054315448853 -0.6642935240809213 -0.315324375712869
-0.619700903504548 -0.6577615417598396 -0.428159484745305
-0.5464867456147711 -0.6314008381476175 -0.5501683546459775
0 0 0
0 0 0
0 0 0
0 0 0
0 0 0
0 0 0
0 0 0
0 0 0
0 0 0
-0.5453360782714283 0.6193817629350439 -0.5647785348957723
-0.6104788489554307 0.6629371919045343 -0.4333934177716388
-0.6631308588533511 0.6811104860562925 -0.3103964719847457
-0.7063318252139871 0.6787924955120815 -0.200838494134859
-0.7431352026518313 0.6607635391460659 -0.1055538531498791
-0.7760586231677788 0.6302122266363186 -0.02378156439396628
-0.8057622495016435 0.5905168673151369 0.04513343211375896
-0.8327255999322934 0.5440702934430888 0.1027404059275239
-0.8573329461707585 0.4921645567212065 0.1508451806243238
-0.8797198884479792 0.4354653072070795 0.1909525702579518
-0.8997878118017312 0.3743472402664966 0.2241562790508206
-0.9172561919773452 0.3091498580331172 0.2511323228047765
-0.931722821859027 0.2403731554110094 0.2722376340346902
-0.9427443715237459 0.1687309763230423 0.2876854316599463
-0.949924396362127 0.09505494240868313 0.2976712937448449
-0.9529749059119221 0.02019571112562163 0.3023755313418946
-0.951746683513375 -0.05501140402667292 0.3019138881341913
-0.9462417366736987 -0.129736547621106 0.2963022173189028
-0.9366168155589022 -0.2031352175441794 0.2854558183074565
-0.9231758329402073 -0.274345258366064 0.2692230686386501
-0.906338643898948 -0.3425309140691718 0.2474324867157761
-0.8865717232698094 -0.4069883797508683 0.219888695130429
-0.8642886988901383 -0.4672447397154281 0.1862455319707112
-0.8397597616495155 -0.523008361857226 0.1458279676254498
-0.8130410554976597 -0.5739789759283284 0.09753141682308548
-0.7839079196020431 -0.6195980581946545 0.03983239719888174
-0.7518247385329885 -0.6587208026032476 -0.02909410159355601
-0.7161026815058775 -0.6891411453870827 -0.1108216191664388
-0.6758455011739553 -0.7076640258838556 -0.206020593661843
-0.6282985379881858 -0.7111813682156258 -0.3153759798476384
-0.5704978126022689 -0.6947237445917762 -0.4380538374633946
-0.5004818163985562 -0.652464226848973 -0.5690416365581461
0 0 0
0 0 0
0 0 0
0 0 0
0 0 0
0 0 0
0 0 0
0 0 0
-0.5782083001560774 0.6746889174868874 -0.4587701235379118
-0.613378309876219 0.7184955788136107 -0.3279194294315095
-0.6520058082863813 0.7288292761464394 -0.209036628830162
-0.6871071425426587 0.7188357935883654 -0.1056355836025285
-0.718735913960071 0.6950700112486256 -0.01721526784038486
-0.7480196640330516 0.6611437002414682 0.05792745334381506
-0.7756030531541273 0.6194194187945583 0.1214886313949046
-0.8017515455794366 0.5714017151948247 0.175198570294955
-0.8264820396669073 0.5179201613303954 0.2206493702586191
-0.8496056131303635 0.4593914826392185 0.2590941292579182
-0.8707636850752711 0.3960611982103162 0.2913865680266368
-0.8894694508197636 0.3282018399933119 0.3180057362429047
-0.9051578203947894 0.256257569730897 0.3391480180301334
-0.917251058891838 0.1809016570820691 0.3548592473457083
-0.9252347181267373 0.1030028127866219 0.3651453641099397
-0.9287252875611375 0.02355571389649446 0.3700195516284351
-0.927517153435524 -0.0563789960040746 0.3695041798037396
-0.9216074661999301 -0.1357169347724366 0.3636214953224277
-0.9112002188407643 -0.213387180660439 0.3523919299790103
-0.8966876249874607 -0.2883798509624521 0.3358397903066586
-0.8786045503973713 -0.3598136345787976 0.313987567257412
-0.8575568736786958 -0.4270112168672867 0.2868059083699979
-0.8341378944335078 -0.489536708160169 0.2541019174145263
-0.8088530863708713 -0.5471425101529266 0.2153874607582115
-0.7820574030316753 -0.5996314308140118 0.169789179700275
-0.753895967638614 -0.646667137995167 0.1160279389430708
-0.7242460176651296 -0.6875413595842553 0.05248413814890995
-0.6926558675119988 -0.7209141261142401 -0.02259805235282588
-0.6582098801484358 -0.7446162915103035 -0.1109339086682864
-0.6194629705592883 -0.7552208683274357 -0.2142593478675215
-0.576238161420387 -0.7462372620583055 -0.333285958357947
-0.5363756490464778 -0.704044364403775 -0.4654274337222218
0 0 0
0 0 0
0 0 0
0 0 0
0 0 0
0 0 0
0 0 0
-0.4572316367471381 0.7321343280737496 -0.504894598914993
-0.5420767191515867 0.7594094247115502 -0.3597918234383926
-0.5888688687338814 0.774225175707373 -0.2319673096299676
-0.6248297685358511 0.7714769662734314 -0.1200460364234342
-0.6560040513731946 0.7543776439669841 -0.02393856438419711
-0.6846687618106324 0.7265543415731472 0.05785737067915429
-0.7120327288418055 0.6904759916037381 0.1274845013204581
-0.7386625313109602 0.6476241865451785 0.1869774794968096
-0.7646888578830747 0.5988071901681188 0.2380775076155676
-0.7899477330296535 0.5443941435320557 0.2821659007912015
-0.8140635612524713 0.4845196904258432 0.3202205299954833
-0.8365010412916764 0.4192662238774404 0.3528198427434213
-0.8566088021141244 0.3488196490652005 0.3801923362807761
-0.8736695591215746 0.2735875074959171 0.4023075654353074
-0.8869656186306223 0.1942581456361648 0.4189937520073482
-0.8958572485158937 0.1117926854058269 0.4300490504248157
-0.8998604647598603 0.02736832516772143 0.4353184107520397
-0.89870902610116 -0.05770080231935376 0.4347329108958817
-0.8923906730123204 -0.142050293048241 0.4283230100817907
-0.8811525474401624 -0.2243548826089898 0.4162151784704858
-0.8654739121499712 -0.3034191790109213 0.3986122291101488
-0.8460084077410855 -0.3782627161199592 0.3757487080815366
-0.8235049428543454 -0.448181933162188 0.3478111037351517
-0.7987232625441516 -0.5127624037999753 0.3148267255493038
-0.7723584516412397 -0.5718243721218497 0.2765489280865109
-0.7449764580439243 -0.6253111319097786 0.232370534427323
-0.7169508189329796 -0.673141345610576 0.1812794860454763
-0.6883860606500322 -0.7150348387776558 0.1218597999216375
-0.6590079262637712 -0.7503126751837598 0.05233968456260588
-0.6280004797826183 -0.7776597377549027 -0.02933819469184578
-0.593803387347045 -0.7947888047108004 -0.1253327294905514
-0.5537737211952014 -0.7981823937905654 -0.2371487549121463
-0.5017425811858764 -0.7843866831450612 -0.3646805636850184
-0.4111139483270366 -0.757259639249068 -0.5074871035359668
0 0 0
0 0 0
0 0 0
0 0 0
0 0 0
-0.3812919150183057 0.7300217726853624 -0.5671725371939241
-0.4557110539742677 0.7862765723481832 -0.4172488311092718
-0.5137440646712592 0.8126712975024978 -0.275013450999509
-0.5549783157425001 0.8180536471320725 -0.1509546271882105
-0.5875987686748922 0.8079014075641839 -0.04497780238695459
-0.6161991646489976 0.786307425381423 0.04493575720865271
-0.6430819208556517 0.7561159124088351 0.1213852135589818
-0.6693906835554478 0.7190045774590941 0.1869452603358508
-0.6956051363000192 0.6757929998279479 0.2437976942806765
-0.7217747474351236 0.6267577414245642 0.2936255226122927
-0.7476485322674905 0.5718721866792641 0.3376149793787937
-0.7727517247761826 0.5109930475292832 0.3764848964197235
-0.7964357369270527 0.4440184406722356 0.4105334837604095
-0.8179220989339921 0.3710263356789378 0.4397077419241923
-0.8363561955562048 0.2923858601091616 0.4637012216535304
-0.8508796344896685 0.2088235660879208 0.4820752699081868
-0.8607196385573901 0.1214295534510239 0.4943850395696861
-0.8652827235673346 0.03160370023445757 0.5002869320973571
-0.8642344058157551 -0.05904574529572717 0.4996123414876378
-0.8575481895705784 -0.1488334161522433 0.4924019869991139
-0.845513227182439 -0.2361394913057341 0.4789003271093115
-0.8286984753652331 -0.3195439663602588 0.4595111429444243
-0.8078804627222145 -0.3979326810066733 0.4347168496142987
-0.7839501113554316 -0.4705557398550312 0.4049685402537954
-0.7578173744399294 -0.5370256979872305 0.3705620416317611
-0.7303275970681439 -0.5972560195275485 0.331522017517357
-0.702191793410009 -0.6513556093876983 0.2875109656809887
-0.6739220153112553 -0.6994971522973193 0.2377663794710184
-0.6457558821672643 -0.7417659498657238 0.1810597035957424
-0.6175503038466832 -0.7779791800599801 0.1156720260567323
-0.5886211027193496 -0.8074484905024018 0.03939711434672283
-0.5574887870350534 -0.8286564827831115 -0.05034566388187856
-0.5214043380169333 -0.8389065510879318 -0.1561195530318803
-0.4753405231711825 -0.8341315624560871 -0.2797783471713145
-0.4110534273249536 -0.8086053605783953 -0.4209423365833995
-0.3304128787212444 -0.7530256364374253 -0.5690164500637483
0 0 0
0 0 0
0 0 0
0 0 0
-0.4074302246713498 0.7703901443579929 -0.490407623819536
-0.4436660686443344 0.8292214345330144 -0.3399297457485734
-0.4822577191240717 0.8524141244330101 -0.2020337912636195
-0.5151859962476746 0.8530472566995504 -0.08302871254970483
-0.5436795596483048 0.839108914135041 0.01757175687679166
-0.5698862207372786 0.815297859407851 0.1025626435831152
-0.5953024122306874 0.7841865634646213 0.1751184504096337
-0.6207592181620256 0.7469813758881096 0.2380689335952438
-0.6465993983220697 0.7040450692903611 0.2936490396671971
-0.6728087436802769 0.6552570757151535 0.343462602262011
-0.6990957339203936 0.60026141863274 0.3885246248506217
-0.7249396619024626 0.5386513853879646 0.4293217576834056
-0.7496253324748062 0.4701259518979196 0.4658792228293839
-0.7722810126467086 0.3946319289286254 0.4978430256370435
-0.791933699235294 0.3124864247274279 0.524588648730195
-0.8075900603854756 0.2244596110322296 0.5453587602503905
-0.8183410832019807 0.1317951974136009 0.5594174626184976
-0.8234764170418383 0.03615476861741461 0.5661973359899858
-0.8225856244818206 -0.0605109989541819 0.5654125125971476
-0.8156225330574113 -0.1561446712024808 0.5571164377615153
-0.802916267264334 -0.2487844867776532 0.5416934067358471
-0.7851259435527049 -0.336748689474074 0.5197860837863664
-0.763150706246569 -0.4187676102290489 0.492173433027844
-0.7380169670895156 -0.4940431376679028 0.4596219472688894
-0.7107665437274668 -0.5622322907116933 0.4227360542925007
-0.6823618956853252 -0.6233689831866533 0.3818289592442752
-0.653612477826359 -0.6777467631070531 0.3368234759152021
-0.6251147949477027 -0.7257824188778784 0.2871782958116207
-0.5971920083162851 -0.7678656194462845 0.2318277284440647
-0.5698157354480062 -0.8041805032862696 0.1691264194917199
-0.542492460179766 -0.8344635719027098 0.09681155827418203
-0.514100526220061 -0.8576453729009736 0.01204422192611646
-0.4827056451957048 -0.8713165648863744 -0.08833291487778593
-0.445650158672503 -0.8709296463600138 -0.2070687981478465
-0.4014430736121424 -0.8485574153596462 -0.3446647232993131
-0.3591602623356243 -0.7908636099918336 -0.4955185731631963
0 0 0
0 0 0
0 0 0
-0.2904123518909678 0.7620405402102285 -0.5787528669002507
-0.36909156612261 0.8290149716777048 -0.4201256866122005
-0.4107039302839947 0.8703736927991422 -0.2716098608895914
-0.4424713671886344 0.8858955118749408 -0.1393134281325982
-0.4696326499080454 0.882479180942798 -0.0259936404313689
-0.4943897129786604 0.8664447381209204 0.06965864973890029
-0.5182060400303314 0.8418630775238818 0.1507615958329575
-0.542035304560805 0.8108669953308933 0.2206636456073445
-0.5664159160946706 0.7742784060446596 0.2822515897697936
-0.5915572677683666 0.7321176487845608 0.3377332487164851
-0.6173970723769445 0.683955451062836 0.3886203751501068
-0.6436315424877787 0.6291552853828095 0.4357775400243544
-0.6697303391430721 0.5670591825675317 0.4794842607397535
-0.694949979926591 0.497153445984262 0.5195026241954931
-0.7183599964325696 0.4192293159927458 0.5551627654460017
-0.7388954465365781 0.3335312939233969 0.5854830442133184
-0.7554443389831944 0.2408682067316212 0.6093327150942551
-0.7669680934164502 0.1426532805034502 0.6256276730154596
-0.7726388886643777 0.04084632014193714 0.6335303669551582
-0.7719655636916235 -0.06220853361012712 0.6326130466725696
-0.764876075019956 -0.1640257857241736 0.6229447258622818
-0.7517332824752884 -0.2622525363865409 0.6050790685338188
-0.7332796877438705 -0.3549121249494437 0.5799467933406662
-0.7105273732800168 -0.4405678286705935 0.548681000363852
-0.6846226342093182 -0.5183830348929586 0.5124167033415858
-0.656715429935263 -0.5880844617357167 0.4721032831382921
-0.627853934899542 -0.6498552691862263 0.428354485843277
-0.5989098996985636 -0.704191582713879 0.3813412472811952
-0.5705284122278933 -0.7517470810087651 0.3307168835053927
-0.5430883960665293 -0.7931729417561907 0.2755570331595883
-0.5166580399566055 -0.828938435645187 0.2143024490254555
-0.490930012753212 -0.8590958885131394 0.1447134303302566
-0.4651270410762727 -0.882935404865377 0.06388979961498883
-0.4378901708293378 -0.8984761773389157 -0.03150804731337237
-0.4072112497832317 -0.9018208302922206 -0.1445620562285537
-0.3703779808291788 -0.8867727740792439 -0.2765035234290908
-0.3221573153290184 -0.8462760228386954 -0.4243012577736704
-0.2366601605082418 -0.7795638017135413 -0.5798898580645666
0 0 0
0 0 0
-0.318166620655868 0.7921187209069623 -0.5208818805536839
-0.3461140305870762 0.8659099707392005 -0.3611163253097331
-0.3731269404273428 0.9026590314153071 -0.2144363759526567
-0.3971072149576567 0.9136569513697448 -0.08681494711348198
-0.4191653780791758 0.9076561707518536 0.02146302671626337
-0.4404231915075146 0.8906614376233253 0.1129141971281109
-0.4617220248148645 0.8662067548743022 0.1910461452398116
-0.4836240307952492 0.835990537234971 0.2592828927849645
-0.5064512983183628 0.8004991145541915 0.320481278750568
-0.5303165897115796 0.7594736512519656 0.3767812199814199
-0.5551338943479277 0.7122290682235766 0.429599946139986
-0.5806124388509429 0.6578794971716563 0.4796704734009881
-0.6062437170025295 0.5955227240770536 0.527087507633032
-0.6312934737841479 0.5244195077655752 0.5713604202536736
-0.6548128652849762 0.4441813895134534 0.6114924404006781
-0.6756834553271606 0.3549567364245289 0.6461095754312853
-0.6927066102264465 0.2575813965489838 0.6736537510475693
-0.7047365760239334 0.1536468292896689 0.6926319442989137
-0.7108396866712896 0.04544197452728356 0.7018845822527546
-0.7104455858305911 -0.06424738276494789 0.7008133441806609
-0.7034495230623342 -0.1724542461371388 0.6895058386211423
-0.6902346147455901 -0.2763895896810716 0.6687189030698437
-0.6716075426241495 -0.3737565253534031 0.6397260104498655
-0.648668702749909 -0.4629493488578446 0.6040751728591793
-0.6226544371271207 -0.5431114212805285 0.5633217872588923
-0.5947890448632644 -0.6140688161666317 0.5187923294752501
-0.5661709866115335 -0.6761833066315044 0.4714091108073823
-0.5377003648382027 -0.7301711507570526 0.4215784722385437
-0.5100404903396288 -0.7769206494194338 0.3691246438803504
-0.4835990119045901 -0.8173185319006554 0.313244972979074
-0.4585120090320169 -0.8520719008002214 0.2524682424387679
-0.4346162054920126 -0.8814902212461178 0.1846178316717927
-0.4113994316378545 -0.9051742507747006 0.1068179918483254
-0.3879346562625408 -0.9215541015180848 0.01564418248611922
-0.3628408313241789 -0.9272594809894291 -0.09239256484800422
-0.3343974528105006 -0.9164480275460704 -0.2197756955642851
-0.3012455546419398 -0.88041900206866 -0.3662150960909371
-0.2666998317555647 -0.8075303998155701 -0.5260854047730827
0 0 0
0 0 0
-0.2988746622862766 0.8322973480423945 -0.46685657399769
-0.3112659029249933 0.898936751841157 -0.308263286600202
-0.3285318482401649 0.9298511741787736 -0.1656611558883275
-0.3463804249543063 0.9371059567061588 -0.04304680144108984
-0.3641549431916457 0.9293623366484306 0.06063682518451942
-0.3821433352656454 0.9120796079477642 0.1485841851540743
-0.4007477070343112 0.8882549791303569 0.2245091698725699
-0.4202831549093622 0.8591835962332361 0.2918314884709249
-0.4409434996082442 0.8250572714973735 0.3533402452347356
-0.4627937441216394 0.785379391265568 0.4110975093298419
-0.4857542269430533 0.7392431226395629 0.4664358869523914
-0.5095734836507445 0.6855343603732216 0.5199783702306486
-0.5337963895669073 0.623112217081771 0.5716577467408043
-0.5577386595901466 0.5510023988852499 0.6207446689431056
-0.5804824243956849 0.468616883014199 0.6659116847764152
-0.6009097298304498 0.3759855076259582 0.7053668511139047
-0.6177875777575003 0.2739563899197378 0.7370796464363024
-0.6299067217291134 0.1643004624349483 0.7590934593079713
-0.6362568765057581 0.04965704559598259 0.7698774999451629
-0.6361998890135117 -0.06670949232693404 0.7686348579479578
-0.6295913817521223 -0.1813090275180978 0.7554745055684504
-0.6168113563734158 -0.2908844207649522 0.7313890923475852
-0.5986943668435414 -0.3928057925111381 0.6980463197234887
-0.5763841946394445 -0.4853071795518203 0.6574634603118985
-0.5511584494745284 -0.567536269399052 0.6116591751044365
-0.5242676479956536 -0.6394490006905518 0.562359679192027
-0.4968170205618772 -0.7016119519621898 0.5107969429664048
-0.4696982651285432 -0.7549759275160018 0.4575968625401498
-0.4435625530271153 -0.8006623999875508 0.4027306578822155
-0.4188179985262749 -0.8397764168504094 0.3454953745165508
-0.3956337396525865 -0.8732325349198204 0.2844975992974515
-0.3739352347423046 -0.9015587572890178 0.2176332864561369
-0.3533819487031967 -0.9246254170213575 0.1420881294437047
-0.3333356954184206 -0.9412356484229053 0.054431317252388
-0.3128796974672562 -0.9485252599582716 -0.04905227959932797
-0.291100154415489 -0.9411835551587613 -0.1715640276922662
-0.268276807170311 -0.9106462537558515 -0.3142466471657834
-0.2497230913112771 -0.8446187726586839 -0.4735583454427524
0 0 0
0 0 0
-0.2491068218988324 0.8725447247295165 -0.4202517038991689
-0.2611438890365045 0.9286857494126698 -0.263337517374029
-0.2756884198496293 0.9530409557009585 -0.1253348790936398
-0.2902768656823634 0.9569134455223686 -0.007483249837564287
-0.3048824399336398 0.9479108234170854 0.09225924706419841
-0.3198756643364755 0.9306972114970212 0.1774324093196241
-0.3355955262456058 0.9077251807848412 0.2518146916545216
-0.3522870911091415 0.8799274261650727 0.3187813202186868
-0.3701056304666985 0.8472429412544559 0.3810527795349954
-0.3891155357775012 0.8089725256727737 0.4406274532109875
-0.4092717284340879 0.7640155714489364 0.4987753591428999
-0.4303864389412473 0.7110496680695342 0.5560358645929921
-0.4520887876342801 0.6487053592612546 0.6122067338416759
-0.473787947263663 0.5757728275166838 0.66634122799143
-0.4946550573479527 0.491454399458955 0.7167907278226544
-0.5136423763506986 0.3956460150866843 0.761338124595658
-0.5295566739251271 0.2891936459090488 0.7974564340872723
-0.5411931439082837 0.1740414149928788 0.8226904441246073
-0.5475153657582608 0.05318457445691804 0.8351037811544347
-0.5478416097758432 -0.06961810781213797 0.833680328221117
-0.5419818816608726 -0.1903359312206157 0.8185523032999911
-0.5302786662029355 -0.3052346434010548 0.7909717748680201
-0.5135383036018556 -0.4113573362071398 0.7530362226893828
-0.4928799454039089 -0.5067973188343067 0.7072664540616904
-0.4695524731768887 -0.5907334516200985 0.6561664911213247
-0.4447688606688591 -0.6632769927262215 0.601867337126201
-0.4195884815323145 -0.7252167354622354 0.5458994346680567
-0.3948544779431003 -0.7777434388891654 0.4890859684279809
-0.3711755504017224 -0.8222049358067334 0.4315179652332254
-0.3489336048396187 -0.8599069793632415 0.3725658683454698
-0.3282978113167137 -0.8919453195390112 0.3108924155348697
-0.3092287399897599 -0.9190323158553744 0.244452835487446
-0.2914611021984582 -0.9412656833040015 0.1704973294204642
-0.2744646685621832 -0.9577765229800925 0.08563455925743152
-0.2574148096957818 -0.9662007245078724 -0.01392033439779401
-0.2393055003777344 -0.9619693922726377 -0.1317109176172337
-0.2196762687872127 -0.9375195491857323 -0.2698136983666853
-0.2017258540894898 -0.8813589012431258 -0.4272155977856796
0 0 0
-0.0809574327008535 0.8310077077005296 -0.550338154076925
-0.167214900586473 0.9083126326639043 -0.3834153601057508
-0.1992298765417496 0.9527709722621561 -0.2292049971265557
-0.2167859501409285 0.9716145653727873 -0.09470474210378181
-0.2300540025407266 0.9729788538249498 0.01968008954445391
-0.2421412776266671 0.9632100415374757 0.1165933855357959
-0.2542040188577671 0.9462772762352307 0.1998490262107673
-0.266765158403502 0.9241985657392848 0.2733008623246592
-0.2801061988733595 0.8976230086530439 0.3403137547754641