# OOMMF: rectangular mesh v1.0
# Segment count: 1
# Begin: Segment
# Begin: Header
# Title: 
# Desc: time = 1.86e-09
# Desc: stepsize = 8.93078401381291e-14
# Desc: step = 11902
# meshunit: m
# valueunit: (none)
# valuemultiplier: 384000.0000000001
# xmin: 0
# ymin: 0
# zmin: 0
# xmax: 9.357999999999999e-08
# ymax: 9.357999999999999e-08
# zmax: 2.3395e-08
# ValueRangeMaxMag: 1
# ValueRangeMinMag: 0
# meshtype: rectangular
# xbase: 1.16975e-09
# ybase: 1.16975e-09
# zbase: 1.16975e-09
# xstepsize: 2.3395e-09
# ystepsize: 2.3395e-09
# zstepsize: 2.3395e-09
# xnodes: 40
# ynodes: 40
# znodes: 10
# End: Header
# Begin: Data Text
0 0 0
0 0 0
0 0 0
0 0 0
0 0 0
0 0 0
0 0 0
0 0 0
0 0 0
0 0 0
0 0 0
0 0 0
0 0 0
0 0 0
0 0 0
0 0 0
-0.8356972032059351 0.0316183528150589 -0.548279549426239
-0.845623724377618 0.05030673491584915 -0.5314035652795644
-0.8562867334483476 0.0311488138175145 -0.5155606477594263
-0.8619670706026847 -0.003739989151840736 -0.5069504726082911
-0.8608572298496324 -0.04315841781004263 -0.5070129986378558
-0.8530238976184705 -0.07844966411123777 -0.5159417411807522
-0.8404601626276844 -0.09831024585205796 -0.532880672004862
-0.829291812870586 -0.0800647480549366 -0.5530503821757253
0 0 0
0 0 0
0 0 0
0 0 0
0 0 0
0 0 0
0 0 0
0 0 0
0 0 0
0 0 0
0 0 0
0 0 0
0 0 0
0 0 0
0 0 0
0 0 0
0 0 0
0 0 0
0 0 0
0 0 0
0 0 0
0 0 0
0 0 0
0 0 0
0 0 0
0 0 0
0 0 0
0 0 0
-0.7792248559272953 0.2422137377402519 -0.5780494175716999
-0.8073452719734995 0.2720513226238622 -0.5236236145177589
-0.8446509669089014 0.2549128866842718 -0.4707272716787809
-0.8816571329318628 0.2067948352770451 -0.4241657648291604
-0.91415729978417 0.1249870845266868 -0.3856094655902953
-0.9276288325378799 0.08436145586685802 -0.3638514721812094
-0.9361159979152699 0.04539544630984519 -0.3487493253060538
-0.9401325807514029 0.002465365336747005 -0.3408000184616524
-0.9391522709892042 -0.04232600193471296 -0.3408834426252503
-0.933188210381572 -0.08558272926937696 -0.3490492235425298
-0.9227615450359768 -0.1251635957949056 -0.3644793619541522
-0.9071610870154523 -0.1664935623353122 -0.386443599902806
-0.8713787253996657 -0.2482151449151954 -0.4231883254008573
-0.8311127054913391 -0.2977615210431719 -0.4696698280248826
-0.7909249316118402 -0.31678081818529 -0.5235338248715775
-0.7608517260168127 -0.2886885850716375 -0.5811742869970868
0 0 0
0 0 0
0 0 0
0 0 0
0 0 0
0 0 0
0 0 0
0 0 0
0 0 0
0 0 0
0 0 0
0 0 0
0 0 0
0 0 0
0 0 0
0 0 0
0 0 0
0 0 0
0 0 0
0 0 0
0 0 0
0 0 0
-0.7516799546629955 0.3358312442032485 -0.5676218998371491
-0.7896617717269669 0.3644731598474442 -0.4935520256506364
-0.8453328942813373 0.3274778486850516 -0.4221025425966387
-0.8796638968210295 0.3064979559706937 -0.3636625243483678
-0.910094220651128 0.2734410058525226 -0.3113816402034267
-0.9372077498245741 0.224755092879091 -0.2666960477653708
-0.9587671301875266 0.1637686961597466 -0.2322614996724823
-0.9714039731670134 0.1104034886304387 -0.2102032126623382
-0.9787404072633494 0.05980351703519042 -0.1961906076757851
-0.9819011312883407 0.008936458211983155 -0.1891832658807366
-0.9810166101913266 -0.04240454272018145 -0.189230719719105
-0.9760695841414295 -0.09350389792607045 -0.1963292845874174
-0.9668679276287844 -0.1445631232331252 -0.2103994152175883
-0.9521403094823875 -0.1985675877879776 -0.2323784502462444
-0.9280478509842152 -0.2602754088147446 -0.2664280350299055
-0.8982825700923919 -0.3101803854453059 -0.311249984342502
-0.8652401869584246 -0.3447918619680595 -0.3639752612372826
-0.8283357570172533 -0.3675237948988991 -0.4228310937357437
-0.7697029596545488 -0.4056596020164194 -0.4929479092063455
-0.7293342210156644 -0.3792203833383317 -0.569441388481907
0 0 0
0 0 0
0 0 0
0 0 0
0 0 0
0 0 0
0 0 0
0 0 0
0 0 0
0 0 0
0 0 0
0 0 0
0 0 0
0 0 0
0 0 0
0 0 0
0 0 0
0 0 0
0 0 0
-0.7552472057199798 0.4162764976577046 -0.5062761457445892
-0.8067711379006582 0.4162454491927448 -0.4193567181729733
-0.8468676266801787 0.4066511031825956 -0.3427099402723222
-0.8852656704725107 0.3756210425553578 -0.2742508433395994
-0.9151251048010737 0.3396503243514532 -0.2172180925493455
-0.9400638783042906 0.2963371554063893 -0.1687133516742066
-0.9610840719222467 0.2445054039496476 -0.1285866017000725
-0.9775815062617401 0.186376063021535 -0.09797122918295742
-0.9887168476131287 0.128358592542979 -0.07722089721274923
-0.9953912369730825 0.07115170235718299 -0.06429401689792616
-0.9982157038574822 0.01411534437079273 -0.05801866618257218
-0.9973878277123472 -0.04300600021291528 -0.05803451625482039
-0.9928862755600354 -0.1001905287343439 -0.06433274249131136
-0.9844620738870127 -0.1576902852606491 -0.07725411971213245
-0.9714378548574751 -0.2161328874616871 -0.09795442362333627
-0.9528688557557186 -0.2748231851550257 -0.1285035432664547
-0.9296770152998812 -0.3274590740151233 -0.1687341164917807
-0.9024793023423855 -0.3718457717184855 -0.2173978631419468
-0.8701859479498847 -0.4092162627684911 -0.2744421000436141
-0.8290193221112636 -0.4419779274949247 -0.3426112595544276
-0.7860576116594832 -0.4537983781405756 -0.4197385652393305
-0.7319062392671113 -0.455092354285146 -0.5071530400116682
0 0 0
0 0 0
0 0 0
0 0 0
0 0 0
0 0 0
0 0 0
0 0 0
0 0 0
0 0 0
0 0 0
0 0 0
0 0 0
0 0 0
0 0 0
0 0 0
-0.6496173224715205 0.505215637303158 -0.5681148600145007
-0.7013134236437792 0.5411054011185045 -0.4640737298074765
-0.7818823046705343 0.5066461100169922 -0.3632764523716657
-0.8317838963895355 0.4803866645085271 -0.2781442112815102
-0.8687210705062096 0.4508177267772534 -0.2051513560324043
-0.8997708414561044 0.4124894076608212 -0.1423549136243567
-0.9253892246583577 0.368205235098507 -0.08988708323366573
-0.9468621115523984 0.3182977746290233 -0.04624573896851721
-0.9647766244275713 0.2628480927794276 -0.0108141148670515
-0.9790076034250491 0.2031726895334349 0.01627791951361077
-0.9892607411601994 0.1418534003910407 0.0352249740478434
-0.9956731540157503 0.08009174286182928 0.04711988006862914
-0.9984364609132509 0.01816959917402609 0.05286302285035484
-0.9976385865258942 -0.04384039170839676 0.05287031992970576
-0.9932629186836213 -0.1058587161506464 0.04714558922137268
-0.9851890738005831 -0.1678032239979578 0.03527841946345778
-0.9731996383652211 -0.2293788158422958 0.01636529036064649
-0.9571520194432677 -0.2893878817227397 -0.01070820188918304
-0.937358766476289 -0.34529252578848 -0.04616941135276728
-0.9139192576527981 -0.3958322790162863 -0.0898242583054841
-0.8861606231955333 -0.4410202346249652 -0.1421988134586349
-0.852672055100978 -0.4806390949913246 -0.2047838538942815
-0.8129126353825324 -0.5119601690750779 -0.2776145394536153
-0.7596267991241821 -0.5401400969005575 -0.3622372175420481
-0.6748719296012547 -0.576153215636077 -0.4610806336732074
-0.6195496793956313 -0.5430297807284219 -0.5668128897641723
0 0 0
0 0 0
0 0 0
0 0 0
0 0 0
0 0 0
0 0 0
0 0 0
0 0 0
0 0 0
0 0 0
0 0 0
0 0 0
-0.6280729354829039 0.5508653804068292 -0.5496105169873723
-0.691534176171629 0.5750000948019967 -0.4372131907483127
-0.7431430303846254 0.5808648085241677 -0.3321663899447641
-0.7952136023495373 0.5585870323333106 -0.2358301379114551
-0.8360539840308245 0.5264246799668497 -0.1545664650174319
-0.8685847608460793 0.4879308959609385 -0.08650984910814721
-0.8958881140112115 0.4433065117507896 -0.0293908797551379
-0.9191408637856078 0.3935141376680826 0.0180747330489699
-0.9390330151807933 0.3390374373463679 0.05718926890663017
-0.9558216982356501 0.2802357648301431 0.08872878502482709
-0.9693978759802783 0.2179434960682647 0.1129973033592686
-0.9795181755735035 0.1534819493817019 0.1303358543730282
-0.9860465676394128 0.08786368851441395 0.1413935595675209
-0.9889326642318407 0.02167487882694123 0.146773244302734
-0.9881547343946053 -0.04471628115253808 0.1468014819183162
-0.9836997922801072 -0.110989375967051 0.1414781859175393
-0.9755674661383501 -0.1767601590348004 0.1304759180477017
-0.9637971143677445 -0.2414195574930333 0.1131888669272556
-0.9485274539740882 -0.3039427303883424 0.08896339528993284
-0.9300073017373334 -0.3630213160623503 0.05746253387732814
-0.9083245591562473 -0.4178603174910284 0.01841874859769903
-0.8831623574045836 -0.4681761197809606 -0.02890279104898696
-0.8537329536098949 -0.5135936252336113 -0.08579995361258171
-0.8187279318353158 -0.5532593083872145 -0.1535861690243195
-0.7748738336972582 -0.5870265988466797 -0.234457488892576
-0.7191065387458461 -0.61140322363495 -0.3302603277140012
-0.6635126745815353 -0.6083249637051171 -0.4355360710696933
-0.5965011013983861 -0.5864143796796808 -0.5480005577874961
0 0 0
0 0 0
0 0 0
0 0 0
0 0 0
0 0 0
0 0 0
0 0 0
0 0 0
0 0 0
0 0 0
-0.5852551768595498 0.5956295170017126 -0.5501834752474876
-0.6541314059841968 0.6238429655991793 -0.4277055739379116
-0.7076316430635273 0.6326365568396785 -0.3146878527767606
-0.7517265058699447 0.6240163393007174 -0.21333276508379
-0.7913574037933276 0.598609888978071 -0.124175924716286
-0.8252974273745208 0.562573816700178 -0.04893727753350634
-0.8543783224611838 0.519469932709902 0.01373576058259581
-0.8797925648586136 0.4707682373281793 0.06589620279212123
-0.9021964946438341 0.4172814419183214 0.1091681422528768
-0.9218582513490119 0.3594560092552147 0.1448058763657619
-0.9387549417240816 0.2976613783454851 0.1735997212845731
-0.9526512619205182 0.2324905150088596 0.1959687056449546
-0.9632226226006185 0.1648001815240308 0.2122335493743444
-0.9701843738373769 0.09544563166767857 0.2227833300705731
-0.9733411816801468 0.02514276457525425 0.227979791725074
-0.9725898041614156 -0.0455034203969144 0.228031821405347
-0.967916350544429 -0.1159172616528244 0.2229374952753885
-0.9594011302768628 -0.1854714632695435 0.2124848407207719
-0.9472289383076595 -0.2534151118174853 0.1963112822409219
-0.931687230412258 -0.3188607102604233 0.1740308942083376
-0.9131079750809947 -0.3809355969809498 0.1453337427999842
-0.8917229035563846 -0.439055031298698 0.1098223236153259
-0.8675292434454374 -0.4928900247116166 0.06672657121993117
-0.8402023757560029 -0.5420710748847942 0.01479586250314425
-0.8089873438862835 -0.5858953423623064 -0.04760383629468592
-0.7725383977708361 -0.6230339831096366 -0.1225278738092261
-0.7298519397650262 -0.6501058986895367 -0.2113728140284308
-0.6820890409364428 -0.6611015665787165 -0.3125688066675393
-0.6243674788077713 -0.6551609202178172 -0.4253579904346095
-0.5514955059575286 -0.6293953576613662 -0.5474615882990965
0 0 0
0 0 0
0 0 0
0 0 0
0 0 0
0 0 0
0 0 0
0 0 0
0 0 0
-0.5420514319719673 0.6184141724237906 -0.5689851987903881
-0.6074629881049709 0.6627428145109261 -0.4379048753972893
-0.6603517224586541 0.681672339451336 -0.3150530499341821
-0.7037446167290328 0.6800742500866892 -0.2055298732397147
-0.7407005857366485 0.6627332015652332 -0.1102149982193038
-0.7737511356396214 0.6328537784070214 -0.02837737218898008
-0.8035636001078307 0.5938307617299587 0.04062717077226149
-0.8306320277913413 0.5480677285889152 0.09834734000790663
-0.8553597751428369 0.4968597375555623 0.146594871205689
-0.8779011633887823 0.4408672776134379 0.186883896712204
-0.8981737523560974 0.3804520796027496 0.2203182373397857
-0.915908731063431 0.3159336484672403 0.2475825642648388
-0.930709421946183 0.2477862072291203 0.2690389700537983
-0.9421309297018604 0.1766946580326552 0.2849005249588536
-0.9497684214369326 0.103462091398718 0.2953566340622804
-0.9533195327793178 0.02891481351256152 0.3005757840893981
-0.9526159525502588 -0.04612905008341178 0.300657542205687
-0.9476376637828093 -0.1208474325894861 0.2955989787140478
-0.9385187289229067 -0.1943931806274182 0.2852961387514502
-0.9255422967705313 -0.265891159939337 0.2695799472417093
-0.9091119789545681 -0.3344841791868906 0.2482654700013279
-0.8896848611879881 -0.3994418764305675 0.2211493502738302
-0.8676734144432234 -0.4602638517444102 0.1878830291586683
-0.8433547282073866 -0.5166332414316687 0.1477934242720288
-0.8167985751415867 -0.5682287656471279 0.09978054689073594
-0.7877990008239201 -0.6144763613378731 0.04232653609498899
-0.7558418016529698 -0.6542222961544494 -0.02638859769658224
-0.7202570223807792 -0.6852589273813835 -0.1079352776217693
-0.680161694227459 -0.7043980842764451 -0.2029862275458751
-0.6328233570840628 -0.7085444978161817 -0.3122487683614951
-0.5752917616047523 -0.692732816152427 -0.4349260103227075
-0.5055999661201933 -0.6511212097720801 -0.5660475637649202
0 0 0
0 0 0
0 0 0
0 0 0
0 0 0
0 0 0
0 0 0
0 0 0
-0.5754937417669215 0.6738257734237022 -0.4634282903072026
-0.6108247909246132 0.7184463532039297 -0.332758038760713
-0.6496152429196123 0.7295373845044013 -0.2139514916446478
-0.6848413649805219 0.7202564414357395 -0.1105575116486429
-0.7165567327753799 0.6971783461291873 -0.02210887610989989
-0.7459016227941805 0.6639378284365719 0.05307851810230577
-0.7735351865103368 0.6229167254150939 0.1166964799321475
-0.799740259012007 0.5756314323046643 0.1704815892062479
-0.8245531618747479 0.5229143196035866 0.2160386483846658
-0.8478043773835724 0.4651752103468173 0.254636527953173
-0.8691526979057355 0.4026430749298048 0.287144810042341
-0.8881245370992672 0.3355648202811716 0.3140558198662725
-0.9041616979818183 0.2643515865913713 0.3355739301096843
-0.9166853471536874 0.1896392923301672 0.3517455232383721
-0.9251712713412199 0.1122595004441097 0.3625685083469175
-0.9292179955698249 0.03317479583088744 0.3680398750553735
-0.9285953492907024 -0.04657671681921903 0.368159322476044
-0.9232719627294608 -0.1259205327583986 0.3629227221703397
-0.913422744904547 -0.2037814432310499 0.3523237325042306
-0.8994138974654661 -0.2791318912654141 0.3363629413662754
-0.8817606685960119 -0.3510622673432442 0.3150450884634353
-0.8610580042654609 -0.4188609134649148 0.2883307969359469
-0.8378978273361317 -0.4820564637090252 0.2560249924162454
-0.8127930747645697 -0.5403689113273497 0.2176438772068964
-0.786113380089175 -0.5935743927814768 0.1723229348603157
-0.7580236801307935 -0.6413174219605446 0.1187942113524413
-0.728423892081329 -0.6828792004561881 0.05544935553642463
-0.6968852000130161 -0.7169186618028858 -0.01945894040222699
-0.662513589083679 -0.7412749149891739 -0.1076440648027317
-0.6238847527372555 -0.7525354579960827 -0.2108511317508135
-0.5808292742845095 -0.7442213433361007 -0.3298059221074401
-0.5411509515300876 -0.7027107122007891 -0.4619018322288188
0 0 0
0 0 0
0 0 0
0 0 0
0 0 0
0 0 0
0 0 0
-0.4544899981893172 0.7306704929112181 -0.5094697953115095
-0.5397039128561831 0.7587439419647528 -0.3647291008125248
-0.5866950549382808 0.7743365327552962 -0.2370481945754352
-0.6227801156991796 0.7723183899571964 -0.1251768030572755
-0.654024658725461 0.755914113266751 -0.02907918745744421
-0.6827200683310328 0.7287757658743867 0.05271803649862249
-0.7100914603041028 0.6933984198446791 0.1223468404172681
-0.7367229457993153 0.6512846524344625 0.1818449961810882
-0.7627643398023779 0.6032554114846749 0.2329666723810454
-0.7880722152519414 0.5496824894355116 0.2771125120882779
-0.8122918418020021 0.4906920900200385 0.3152827881976385
-0.834907315075774 0.4263464310749666 0.3480782899616122
-0.855282763465851 0.3567997815340464 0.3757463378603621
-0.8727097446185651 0.2824182126511275 0.3982683201194149
-0.8864702254044693 0.2038425273284762 0.4154741430266007
-0.8959134194614019 0.1219857790785076 0.4271517464924928
-0.9005336119166339 0.03798329806652032 0.4331240963931359
-0.9000340283148566 -0.04688021181379438 0.4332908879905334
-0.8943666737582663 -0.1312526324988036 0.4276458807620016
-0.8837424582867168 -0.2138020852464808 0.4162786756075867
-0.86860885891878 -0.2933089752051025 0.3993601072615376
-0.8495962385979331 -0.3687554711135103 0.3771016227545252
-0.8274411820189783 -0.4393935710698387 0.3496775371703616
-0.802902445898635 -0.5047638227766947 0.3171137738822558
-0.7766842001127484 -0.5646459844892966 0.2791712117954372
-0.7493692410872123 -0.6189508834626105 0.2352563375835574
-0.7213532286304173 -0.667574535564786 0.184373965108777
-0.6927656994384606 -0.7102248719570707 0.1251252050352063
-0.663358426287383 -0.7462219990287051 0.05575236711682387
-0.6323413899447912 -0.7742602912586243 -0.0257947270347866
-0.5981795636914685 -0.7920702470139291 -0.1216796341923213
-0.5582529980766996 -0.7961556679854235 -0.2334303803558143
-0.5064208605901391 -0.7830803181389768 -0.3610029463903323
-0.4161871541613512 -0.7567022877958948 -0.5041724906770833
0 0 0
0 0 0
0 0 0
0 0 0
0 0 0
-0.3787825330255241 0.7278166429662015 -0.5716701206956474
-0.4534851740059555 0.7849255183388515 -0.4221884977320826
-0.5117715743256082 0.8121456650419137 -0.280195065027769
-0.5531644391913467 0.8182896718202586 -0.1562405715760646
-0.5858673554124659 0.8088438312739137 -0.05031002357522143
-0.6144937723433351 0.7879287539673318 0.03956870509310346
-0.6413638828799794 0.7584210940428692 0.1159733324861056
-0.6676390343074321 0.7220282915432074 0.1814752492221353
-0.693817391051359 0.6795930337521693 0.2382661040731718
-0.7199684530139424 0.6314059988355869 0.2880484183243241
-0.7458630117735481 0.5774438457346319 0.3320345956241453
-0.7710491103935777 0.5175538883107434 0.3709733710870662
-0.7949002206396107 0.4516107425201016 0.4051930113754921
-0.8166563931439295 0.3796542597275773 0.4346665142472473
-0.8354744864526333 0.3020024060650622 0.4591044861658629
-0.8504970370773164 0.2193217497344059 0.478071919292635
-0.8609391597520153 0.1326408016932475 0.4911111696262523
-0.8661817393142283 0.04330515597827944 0.497849232141895
-0.8658532936522261 -0.04711490934558053 0.4980745518383258
-0.8598836310700602 -0.1369491959157096 0.4917774484010106
-0.8485178399368142 -0.2245677463492621 0.4791521706186621
-0.8322868701721057 -0.3085176329266765 0.4605599156596678
-0.811940358008407 -0.3876353540320246 0.4364535340006379
-0.788355984218274 -0.4611139219717275 0.4072699265979351
-0.7624440651518892 -0.5285093656584612 0.3733053681986802
-0.7350617591097683 -0.5896857667137426 0.3345966330220282
-0.7069402578425807 -0.644713649393433 0.2908260341291103
-0.6786169232252355 -0.6937400946404008 0.2412545390259879
-0.6503572258265473 -0.7368377424666007 0.1846770697512823
-0.6220466552655475 -0.7738235348066822 0.1193947052939783
-0.5930295693381249 -0.8040201960442264 0.04321405146062241
-0.5618548467887209 -0.8259310117873949 -0.04644453582363338
-0.5258019222875644 -0.8368865068070356 -0.1521621281496118
-0.4798732415948276 -0.8328466439938507 -0.2758407866676929
-0.4158504872263486 -0.8080963083080835 -0.4171914773487762
-0.3355336903984356 -0.7532921388159992 -0.565657225009655
0 0 0
0 0 0
0 0 0
0 0 0
-0.4055441053639852 0.7682620438747391 -0.4952851810279937
-0.4419445083108689 0.827986700814217 -0.3451421081940766
-0.4806997305512933 0.8520005143341866 -0.2074196052020996
-0.5137325934895144 0.8533736750527486 -0.08849967860677457
-0.5422684252853293 0.8401190509399777 0.01203890303472453
-0.5684670231780552 0.8169732390713275 0.09695344346841531
-0.5938401411118377 0.7865469437994277 0.169404226641639
-0.6192352826409279 0.7500797914992038 0.232223967576821
-0.6450130568706032 0.7079603908725769 0.2876634168989644
-0.6711793342338043 0.660084693171338 0.3373521885780006
-0.6974653019160573 0.6061016246044354 0.3823388199947879
-0.7233750221867858 0.5455950694250926 0.4231484343528813
-0.7482182991804984 0.4782375961169742 0.4598458202829498
-0.7711454058302056 0.4039311646708102 0.4921121592428391
-0.7911980300845672 0.3229305928061476 0.5193471954484491
-0.8073855965569168 0.2359312786554612 0.5408002683287334
-0.8187862996666027 0.1440986573129192 0.5557198686738538
-0.8246603213042936 0.04902472091602824 0.563499717129835
-0.8245534589779528 -0.04738843694006591 0.5637959997480209
-0.8183674133514279 -0.1431016329619716 0.5565938370195177
-0.806378971222471 -0.2361380078786814 0.5422101031936571
-0.7892029642471325 -0.324771177914375 0.5212315830987679
-0.7677083859749698 -0.4076668692218078 0.4944002000834908
-0.7429083528389082 -0.4839541656241921 0.4624668040596769
-0.7158474472920998 -0.5532201890237826 0.4260397336656222
-0.6875038091442058 -0.6154397339205407 0.385450964876235
-0.6587112426898332 -0.6708623428647749 0.3406511642134815
-0.6300953183789294 -0.7198769941101957 0.2911305602437232
-0.6020098811280973 -0.7628610040496477 0.2358541742782958
-0.5744570616374096 -0.7999998818977142 0.1732029829378126
-0.5469729352944406 -0.8310434179799363 0.1009328761484976
-0.5184645236113459 -0.8549454346514591 0.01621238801309198
-0.4870248679900158 -0.8693272321525408 -0.08412455882386205
-0.4500190013667992 -0.869673382479739 -0.2028573543529479
-0.4059593509775186 -0.8480756170158087 -0.3405359792696903
-0.3638615429581069 -0.7911775288657362 -0.4915718618615715
0 0 0
0 0 0
0 0 0
-0.2886968787258003 0.7591543932944557 -0.5833855666330002
-0.3676513130943768 0.827027839099336 -0.4252734006902654
-0.4094362742082084 0.8692626438167531 -0.2770277845762202
-0.44132321649756 0.8855771284427035 -0.1448687963621653
-0.4685491528425565 0.8828708183910592 -0.03163557181438726
-0.4933191320131256 0.8674963995626004 0.06392363205999139
-0.5171060330892796 0.8435676105534167 0.1448966423622963
-0.5408757261221462 0.8132590213156251 0.2146234216962162
-0.5651805585452513 0.7774288895714448 0.2759986556166308
-0.5902460892478214 0.7361265983574511 0.3312509401018207
-0.6160293409481903 0.6889426719319712 0.3819238744595235
-0.6422495240153094 0.6352482489199718 0.4289233161606131
-0.6684025709004724 0.5743769393356678 0.4725771204502274
-0.693772673000281 0.5057864277806324 0.5126983203317049
-0.7174548468412899 0.4292161403799197 0.5486638748644799
-0.7384023093180084 0.3448359156443961 0.5795258586771795
-0.755508087221065 0.2533624115932371 0.604164727980065
-0.7677206125278719 0.1561106539852136 0.6214776945411133
-0.774179121725166 0.05495220369511634 0.6305766747937163
-0.774342130866733 -0.04782997602047366 0.6309568588728136
-0.7680771142267042 -0.1497718993743054 0.6225961168839641
-0.755686549702787 -0.2484984639887848 0.605959034913674
-0.737862846134995 -0.3419732887591549 0.5819043650539251
-0.715585561423542 -0.4286758665244639 0.5515199957768109
-0.6899886822413221 -0.5076780504047903 0.5159250095857675
-0.6622284574822189 -0.5786214078888721 0.4760784981843013
-0.6333734146232897 -0.6416199031372173 0.4326222573407678
-0.6043243420312446 -0.6971205787671719 0.3857654576135942
-0.5757591519987202 -0.7457483421636353 0.3352026387872025
-0.5480899663715411 -0.7881435862987195 0.2800483460744501
-0.5214166028583653 -0.8247797782964711 0.2187762408874999
-0.4954612356912834 -0.8557255351288251 0.1491709504419401
-0.4694740215727869 -0.8802971364010711 0.06834540739762887
-0.4421211909827238 -0.8965476004364406 -0.02704168329963359
-0.411415419301481 -0.9006170344623923 -0.1400939327635285
-0.3746556493109451 -0.8863409492113343 -0.2720898127283421
-0.3266098155536069 -0.8466752085920962 -0.4200798966144044
-0.2414347941367224 -0.7808320323749085 -0.5762035902330248
0 0 0
0 0 0
-0.3171110720712548 0.7892959990418656 -0.5257874036778765
-0.3451836265130297 0.8640348938919813 -0.3664586826974971
-0.3723127712649252 0.901653966139054 -0.2200075582764022
-0.396373901747725 0.9134163939614967 -0.09251065482235002
-0.4184704466903102 0.908095333300654 0.01566368042274399
-0.4397262034140388 0.8917377108943401 0.1069800028042479
-0.4609891851699331 0.86792464815304 0.1849210001183796
-0.4828305453053716 0.8383990720376078 0.2529064264240728
-0.5055834161687643 0.803686556872963 0.3138046009809338
-0.5293744199477184 0.763560860292482 0.3697803890614279
-0.5541352990674727 0.7173607613577145 0.4222885368935346
-0.5795976681941257 0.6642117627420525 0.4721115093481907
-0.6052798309316832 0.6032052737346721 0.5194032383476171
-0.6304769782588875 0.5335718804112112 0.5637373753087388
-0.6542685434772729 0.4548644031092093 0.6041779934756232
-0.6755573901436874 0.3671429616074106 0.6393967925821871
-0.6931522911574129 0.2711315378047707 0.6678529706985276
-0.7058948364493133 0.1683001204976613 0.6880316484833161
-0.7128157908691967 0.0608276679451795 0.6987085537617754
-0.7132888963175189 -0.04857580031318665 0.6991847695810233
-0.7071416932325075 -0.1569676350235452 0.6894285947415996
-0.6946900674252505 -0.2615270422883895 0.6700815744165683
-0.6766861751742979 -0.3598783002480025 0.6423265753015263
-0.6541968371549555 -0.4503088928068446 0.6076581270052477
-0.6284483116538181 -0.5318489416968698 0.5676173207323617
-0.6006755016425406 -0.604222895484289 0.5235490753492587
-0.5720022917390659 -0.6677133204855882 0.4764160995299864
-0.5433623307352362 -0.7229835119907896 0.4266757772916513
-0.5154550453682638 -0.7708935085614766 0.3742048832687473
-0.488722986486783 -0.8123224078827084 0.3182485634391421
-0.4633341308720429 -0.8479855677234044 0.2573751349720158
-0.4391536469983991 -0.8782127270078491 0.1894372731260723
-0.4156947412973345 -0.9026342021827652 0.1115767857021538
-0.3920528415468927 -0.9197170937384437 0.02037245494085934
-0.3668654392946995 -0.9261328167930283 -0.08767984437781369
-0.3384233007656977 -0.9160788196497718 -0.2151029188270819
-0.3053656527979379 -0.8808771478292768 -0.3616728750175316
-0.2709785134078058 -0.8088622062534833 -0.5218357754754288
0 0 0
0 0 0
-0.2983510812226589 0.8295961552939553 -0.4719712400716354
-0.3108155073875605 0.8971906241294367 -0.3137558036780269
-0.3281616560801918 0.9289506318046574 -0.1713494999946984
-0.3460689628922463 0.9369360446305633 -0.04885817428761946
-0.3638722211392433 0.929841550314908 0.05469641662084522
-0.3818598935839954 0.913174396201462 0.1424624294125087
-0.4004383077148135 0.889981482077874 0.2181332695233955
-0.4199286969797362 0.8616044910254368 0.2851273233096016
-0.4405330474473041 0.8282771862654067 0.3462477968436062
-0.462327550820379 0.7895393222343324 0.4035850522481975
-0.4852479907749238 0.7445124417285286 0.4585145707175761
-0.509063556613772 0.6920982759153972 0.5117169840865857
-0.5333450318576216 0.6311523690207845 0.5631960263285273
-0.5574377506411634 0.5606694184610794 0.6123013615554308
-0.5804533949106482 0.4799958181696994 0.657782540720186
-0.6012973560468233 0.3890588362077053 0.6979073803735026
-0.6187460396976034 0.2885730341449986 0.7306702007902611
-0.6315784171438827 0.1801620246476928 0.754089084838702
-0.6387474162327544 0.06633074764242278 0.766552000958302
-0.6395555550257512 -0.04974793334586006 0.7671335184721879
-0.6337860312376895 -0.1646102744908669 0.755790132338349
-0.6217474228327212 -0.2749547216920432 0.7333689679964102
-0.6042176624278267 -0.3780496162971627 0.7014267631248615
-0.5823077709824258 -0.4719955365425451 0.6619198390571119
-0.5572885316478476 -0.5558032117419733 0.6168567761734424
-0.5304257005514537 -0.6293099523752069 0.5679943309893274
-0.5028545230008884 -0.6929941123759941 0.5166202560002428
-0.4755038767250491 -0.7477512194601528 0.4634265605414768
-0.4490631272966301 -0.7946768582282151 0.4084495056908543
-0.4239758677581776 -0.8348731194062511 0.3510432139375079
-0.400442323912258 -0.8692681394019117 0.2898600473340336
-0.3784145955237241 -0.8984149659012837 0.2228294032196174
-0.3575749393066864 -0.9222173352587535 0.1471575663296411
-0.3373047256708537 -0.9395183663639335 0.05942020956673863
-0.3167030364931859 -0.9474986080892697 -0.04410866519054495
-0.294865662211632 -0.940891894186662 -0.1666633874080638
-0.2720692003777046 -0.9111657144899525 -0.3094436797607118
-0.2535985167765222 -0.8460208361917531 -0.4689739193368373
0 0 0
0 0 0
-0.2490161937061526 0.8700031169648211 -0.4255414336390698
-0.2611281977929055 0.9270813246682951 -0.2689466150906309
-0.2757484452808456 0.9522460002132621 -0.1311119750558262
-0.290394683363645 0.9568133162374585 -0.01338677499642603
-0.3050368826362926 0.9484314276649585 0.08619934598905404
-0.3200470351617613 0.9318149009537268 0.171145802299566
-0.3357670790566871 0.9094671526699453 0.245214124463013
-0.352445979631581 0.8823688708137782 0.3117803830588968
-0.3702445150105995 0.8505035263754742 0.3735809828236021
-0.3892353644025378 0.8132120139003461 0.4326454108696475
-0.4093858603481578 0.7694267854785217 0.4902913818691768
-0.4305258597759783 0.7178459790230345 0.5471239662678055
-0.4523076573966703 0.6570998521175577 0.6030236872689325
-0.4741679560757887 0.5859470983291559 0.6571383015701876
-0.4953063746750047 0.5035178427460733 0.7079133967108151
-0.5146985931709662 0.4095907038419073 0.7532070190287118
-0.5311618194212575 0.3048555065706791 0.7905252947898842
-0.5434808041908414 0.1910816938597506 0.8173838766135311
-0.5505832515085562 0.07110466010684106 0.8317464820901594
-0.551728128065899 -0.05142423181408071 0.8324371574378632
-0.5466525790712428 -0.1725009068920617 0.8193988008998881
-0.5356276587484655 -0.2883311050607731 0.7937053515241472
-0.5194044432558742 -0.3958298167895822 0.7573227716544515
-0.499072182823968 -0.4929280734438407 0.7127053183064251
-0.4758768671300101 -0.5786432680663417 0.6623542674823117
-0.4510506791590336 -0.6529519258412557 0.6084464375525338
-0.4256861912468741 -0.7165472634305518 0.5525859986028572
-0.4006654694332616 -0.770564567922063 0.495678755109504
-0.3766357087227391 -0.8163299264715318 0.4378938159667283
-0.3540132660306638 -0.8551522638842792 0.378667681546622
-0.3329964916006821 -0.8881471168137796 0.3167144383778658
-0.3135700602654855 -0.9160572619551774 0.2500258189153319
-0.2954887169682348 -0.9390179027089346 0.1758743771462449
-0.2782391175248766 -0.9562031335122069 0.09087662482956613
-0.2610106883903345 -0.9652961509326755 -0.008761366364013772
-0.2428073288639001 -0.9617762027293622 -0.1266141260423424
-0.2231701528733077 -0.9381192294866573 -0.2648157739521272
-0.2052805968609177 -0.8828424175543624 -0.4224324115396371
0 0 0
-0.08089203368938776 0.8276955235805057 -0.5553166656335707
-0.1674583063863171 0.9059498345947575 -0.3888606599026919
-0.1996200947293346 0.9513014896025547 -0.2348984752190003
-0.2172713709315418 0.9709193133208343 -0.1005427192497163
-0.2306114452135949 0.9729493195881944 0.01371068376726057
-0.2427567719864295 0.9637797937648498 0.1104430114824453
-0.2548676152714088 0.9474314049320491 0.1934327573973645
-0.2674692207200365 0.9259738148346146 0.266519624433261
-0.2808451591743679 0.9001054503953135 0.3330708254065085