# OOMMF: rectangular mesh v1.0
# Segment count: 1
# Begin: Segment
# Begin: Header
# Title: 
# Desc: time = 3.02e-09
# Desc: stepsize = 8.901997361947791e-14
# Desc: step = 19326
# meshunit: m
# valueunit: (none)
# valuemultiplier: 384000.0000000001
# xmin: 0
# ymin: 0
# zmin: 0
# xmax: 9.357999999999999e-08
# ymax: 9.357999999999999e-08
# zmax: 2.3395e-08
# ValueRangeMaxMag: 1
# ValueRangeMinMag: 0
# meshtype: rectangular
# xbase: 1.16975e-09
# ybase: 1.16975e-09
# zbase: 1.16975e-09
# xstepsize: 2.3395e-09
# ystepsize: 2.3395e-09
# zstepsize: 2.3395e-09
# xnodes: 40
# ynodes: 40
# znodes: 10
# End: Header
# Begin: Data Text
0 0 0
0 0 0
0 0 0
0 0 0
0 0 0
0 0 0
0 0 0
0 0 0
0 0 0
0 0 0
0 0 0
0 0 0
0 0 0
0 0 0
0 0 0
0 0 0
-0.8358033361686792 0.02953037152035884 -0.5482342021501162
-0.8456346793322855 0.0482054797824267 -0.5315808695104893
-0.8561657455385753 0.02905397440774905 -0.515883788015759
-0.8616986317037251 -0.005813089109797555 -0.5073871067685193
-0.8604360113076898 -0.04519353052119362 -0.5075504066040557
-0.8524524950306033 -0.08042821964957998 -0.51658111192735
-0.839752521278528 -0.1002083429570965 -0.533642193804189
-0.8284872150698872 -0.08184009964890039 -0.5539956069818603
0 0 0
0 0 0
0 0 0
0 0 0
0 0 0
0 0 0
0 0 0
0 0 0
0 0 0
0 0 0
0 0 0
0 0 0
0 0 0
0 0 0
0 0 0
0 0 0
0 0 0
0 0 0
0 0 0
0 0 0
0 0 0
0 0 0
0 0 0
0 0 0
0 0 0
0 0 0
0 0 0
0 0 0
-0.7800031231240792 0.2403670369771081 -0.5777705560614245
-0.8080430967730484 0.2701349631717889 -0.5235393542319406
-0.8452268075000726 0.2529378920197946 -0.470759032482455
-0.8820817041355211 0.2047677036793396 -0.4242664902620338
-0.9143889476547022 0.1229111991645437 -0.385727480906999
-0.927726435291763 0.08225842335569088 -0.3640840741475425
-0.936082651108478 0.04328789217415425 -0.3491066150688664
-0.9399629131412589 0.0003734106137634602 -0.3412764018849107
-0.9388429264777278 -0.04438288617689275 -0.3414734525806423
-0.9327398773281562 -0.08758428462382097 -0.3497503600123791
-0.9221778310107516 -0.1270880618362718 -0.3652898472870619
-0.9064383226957781 -0.1683204488668598 -0.3873471229294504
-0.870449369984947 -0.2499532662917565 -0.4240769493416147
-0.8300112047264013 -0.2993866352663866 -0.4705837254437289
-0.7896820677014159 -0.3182687208174442 -0.5245066761253315
-0.7595150199500839 -0.290006184126826 -0.5822657019251781
0 0 0
0 0 0
0 0 0
0 0 0
0 0 0
0 0 0
0 0 0
0 0 0
0 0 0
0 0 0
0 0 0
0 0 0
0 0 0
0 0 0
0 0 0
0 0 0
0 0 0
0 0 0
0 0 0
0 0 0
0 0 0
0 0 0
-0.7527358485204955 0.3342274449458855 -0.5671690730259135
-0.7906373925874708 0.3627644320992129 -0.4932489029346344
-0.8461641148229383 0.3256575107626321 -0.4218453229203789
-0.8803888531412914 0.3045836319088859 -0.3635165449298741
-0.9107034087907628 0.2714487793921528 -0.3113436387392466
-0.9376832668658045 0.2226954504919231 -0.2667523708799437
-0.9590919702100003 0.1616507906014772 -0.2324039900187099
-0.9715920015384956 0.1082469646719294 -0.2104556418481895
-0.9787959103960902 0.05763226670169842 -0.1965631899077559
-0.9818231291778785 0.006774314815389331 -0.1896772302363679
-0.9808037711479553 -0.04453424476520486 -0.1898437872176537
-0.9757218704998554 -0.09557802688641426 -0.1970575352651167
-0.9663849703234327 -0.1465590468840711 -0.2112357330316296
-0.9515153568840296 -0.2004654967744212 -0.2333069013485063
-0.9272594909984605 -0.2620641349060669 -0.2674176986461628
-0.8973409440151427 -0.3118445684177416 -0.3123014494720831
-0.864160977463572 -0.3463126206400498 -0.3650936507454276
-0.8271286944006162 -0.3688805732624757 -0.4240109026530787
-0.768327128116653 -0.4068483612028375 -0.4941131805432647
-0.7278580468751401 -0.3802109309159278 -0.570668302616458
0 0 0
0 0 0
0 0 0
0 0 0
0 0 0
0 0 0
0 0 0
0 0 0
0 0 0
0 0 0
0 0 0
0 0 0
0 0 0
0 0 0
0 0 0
0 0 0
0 0 0
0 0 0
0 0 0
-0.7564184561065739 0.4148321082510417 -0.5057128050834214
-0.8078385702030222 0.4146625635756026 -0.41886967288316
-0.8478458517941788 0.4049372445375335 -0.3423203756450269
-0.8861376553882745 0.3737808768660721 -0.2739487393513635
-0.9158951754174882 0.3376959704996234 -0.2170194902659327
-0.9407250781440397 0.2942830248521755 -0.1686233336010866
-0.9616235874350589 0.2423649912787128 -0.1286051596593088
-0.9779876093462421 0.1841644497212249 -0.09810041500472851
-0.9889883525968126 0.1260973297181717 -0.07746936081954289
-0.9955277413754055 0.06886670137320806 -0.06466756214638564
-0.9982161640715773 0.01183397671687824 -0.05851877289630828
-0.9972516956253833 -0.04525630052715417 -0.05865937976907912
-0.992614014641517 -0.1023830045377028 -0.06507794034142948
-0.9840541215470502 -0.1597997413373998 -0.07811228158722838
-0.970892422502788 -0.2181372245121962 -0.09891438322500432
-0.9521820809638352 -0.2767049612378937 -0.1295517237157248
-0.9288552292731433 -0.3292024329918842 -0.1698638312418498
-0.9015314393492717 -0.3734345390242611 -0.2186040002574687
-0.869115374754769 -0.4106342354442087 -0.2757136014889847
-0.8278160573546046 -0.4432123953269119 -0.3439234621459524
-0.7847366399517018 -0.4548331682436954 -0.4210881083368594
-0.7304563495826032 -0.4559170885861433 -0.5085008649841138
0 0 0
0 0 0
0 0 0
0 0 0
0 0 0
0 0 0
0 0 0
0 0 0
0 0 0
0 0 0
0 0 0
0 0 0
0 0 0
0 0 0
0 0 0
0 0 0
-0.6510367248025511 0.50409164466982 -0.5674881467770431
-0.7026559451680239 0.5398379112131327 -0.4635187723674976
-0.7830784252140452 0.5052152084952027 -0.3626923945569295
-0.8328798727996364 0.4787937106436475 -0.2776106988812719
-0.8697322820207031 0.4490698652227803 -0.204699813775816
-0.900693828209859 0.4105939628514645 -0.141997272842117
-0.9262197261131879 0.3661729819769339 -0.08963462628320833
-0.9475907547229204 0.3161423308446988 -0.04610627085035489
-0.9653904983851771 0.2605852828438867 -0.01079333094045444
-0.9794942003633702 0.2008220731748698 0.01617425053189325
-0.9896120978835582 0.1394401289631704 0.03499065814237242
-0.9958843069380466 0.07764539012960478 0.04675083513849777
-0.998504592046867 0.01572200532437146 0.05235836332334452
-0.9975630722820679 -0.04625690354857815 0.05223232421842604
-0.9930452925356008 -0.1082127500110879 0.04637938882650401
-0.9848324124074892 -0.1700656545442704 0.03439175215183548
-0.9727077656570962 -0.231524136623278 0.01536804448278503
-0.9565299310200731 -0.2913951358004865 -0.01180533330954179
-0.9366151391559642 -0.3471446015666073 -0.04735722444373897
-0.9130630082550384 -0.3975145492044398 -0.09109405099703069
-0.8851963654640267 -0.44251976229673 -0.1435397315941555
-0.8515977437943822 -0.4819447922377502 -0.2061807459469216
-0.8117258360178035 -0.5130617199574425 -0.2790498856038254
-0.7583063529920006 -0.5410306791944771 -0.3636719389536858
-0.6733636480062597 -0.5768395433098817 -0.4624257116745869
-0.6179359677206936 -0.5434865565955824 -0.5681351094563392
0 0 0
0 0 0
0 0 0
0 0 0
0 0 0
0 0 0
0 0 0
0 0 0
0 0 0
0 0 0
0 0 0
0 0 0
0 0 0
-0.6295458539954041 0.5499438822055449 -0.548847651121776
-0.6929169037528371 0.5739002492892868 -0.4364684047663417
-0.7444487369961015 0.5795912350290017 -0.3314665567783051
-0.7964273613017419 0.5571349392586521 -0.2351682751291125
-0.8371897127914848 0.5247927913686934 -0.1539672397738091
-0.8696495553674797 0.4861222327522307 -0.08599317224716374
-0.8968787497813729 0.441326642713254 -0.02897072008163647
-0.9200487688255901 0.391372202304539 0.01838646909578439
-0.9398451965649495 0.3367466293882422 0.05738217571204842
-0.9565224578857385 0.27781380241493 0.08879346117807821
-0.9699715797400303 0.2154136844885781 0.1129251036381393
-0.9799520305034046 0.1508737856280292 0.1301196323485477
-0.9863314775743378 0.08521174773068918 0.141028984236235
-0.9890634443148562 0.01901675522273615 0.1462595847827807
-0.9881302142257735 -0.04734212235899297 0.1461417229427396
-0.9835226887108736 -0.1135456113777294 0.1406787650208476
-0.9752439088521102 -0.1792124494509883 0.1295461933390305
-0.9633360039344011 -0.243738168247437 0.112140308823737
-0.9479400125612442 -0.3061036072781818 0.08780839479612508
-0.9293065124148813 -0.365006147347783 0.05621315132260335
-0.9075225793924954 -0.4196556016824456 0.01708636501236439
-0.8822674285596692 -0.4697719453159847 -0.03030682920967118
-0.8527473650277687 -0.5149825788013561 -0.08726325096684061
-0.8176475674048187 -0.5544352043778702 -0.1550937125206913
-0.773683191096055 -0.5879836842522891 -0.235986242964561
-0.717783530556374 -0.6121358497295282 -0.3317777942206722
-0.6620730549876227 -0.6088201195045079 -0.4370324152118151
-0.5949391750280778 -0.586663301792577 -0.549430203344102
0 0 0
0 0 0
0 0 0
0 0 0
0 0 0
0 0 0
0 0 0
0 0 0
0 0 0
0 0 0
0 0 0
-0.5867788001485307 0.5949258298284649 -0.5493213055208785
-0.655561638122682 0.6229414618816217 -0.4268288576123845
-0.7089905484332825 0.6315372986828461 -0.3138360122813284
-0.7530263763253008 0.6227223222789759 -0.212528082600548
-0.7925995617947252 0.5971192435787918 -0.1234282933151888
-0.8264865656579511 0.5608840182354121 -0.04826048979260875
-0.8555145921126039 0.5175804316129743 0.01432757808325033
-0.8808689112774498 0.4686815562470494 0.06638945683407461
-0.9031999661771684 0.4150045536920203 0.1095492652300718
-0.9227714469740567 0.3570014990069649 0.1450613192969959
-0.9395579073666508 0.2950484723192449 0.1737162562539238
-0.9533239606112248 0.2297459707431125 0.1959342110297025
-0.9637474934194105 0.1619583840481514 0.2120383238103769
-0.9705481335758589 0.09254730272145782 0.2224214854086687
-0.9735358992260159 0.02223267877051963 0.2274501284081391
-0.9726134140204197 -0.04837913349005636 0.2273380881205221
-0.9677726532866925 -0.1187138337593304 0.2220880843822935
-0.9590992807294392 -0.1881480300896318 0.2114920529893795
-0.9467825131964014 -0.255936838783536 0.1951901822812712
-0.9311129412513376 -0.3212002276890865 0.1727978714184905
-0.9124238919814205 -0.3830733632580449 0.1440049988842277
-0.890945885801391 -0.4409785724828748 0.1084127630149707
-0.8666722866644122 -0.4945924238435028 0.06524938164064911
-0.839272547995994 -0.5435491593810562 0.01326278690391211
-0.8079844608211159 -0.5871475894112261 -0.04918149367593603
-0.7714539651121303 -0.6240582777559428 -0.1241372050477126
-0.7286731237730644 -0.6508973645270572 -0.2129978862395939
-0.6808100044214147 -0.6616503970309988 -0.3141918044577771
-0.6229754160724553 -0.6554549229111272 -0.4269431753769098
-0.5499759161775345 -0.6294285241961896 -0.5489501111693919
0 0 0
0 0 0
0 0 0
0 0 0
0 0 0
0 0 0
0 0 0
0 0 0
0 0 0
-0.5435982140834152 0.6179427574174867 -0.5680208888769797
-0.6089237749024643 0.6620578327634522 -0.4369110463642377
-0.6617472969398622 0.6807731046867372 -0.3140676597931819
-0.7050933817976835 0.6789629692661633 -0.204579102819375
-0.7420150590839795 0.6614104928775993 -0.1093151956683464
-0.7750364435333177 0.6313161702054421 -0.02753914363881566
-0.80482069607849 0.5920728558988818 0.04139300027148949
-0.8318560628776432 0.5460850564924694 0.09902828752090073
-0.8565391745326615 0.4946511191252681 0.1471764683603537
-0.8790182595189572 0.4384369500671589 0.18734978048578
-0.8992061535073433 0.3778115474231879 0.2206506925623028
-0.9168312830553762 0.3131032078886905 0.2477635558770562
-0.9314967223610824 0.2447959391765671 0.269051676064696
-0.9427600783959676 0.173584357527592 0.2847312863114296
-0.9502214747136718 0.1002797776063817 0.2949968053999718
-0.9535853207754809 0.02571400189764958 0.3000230426282794
-0.9526911270711839 -0.04929278851075523 0.2999163840150629
-0.9475269076583931 -0.1239201518277953 0.2946804289977507
-0.938234139954915 -0.1973260182551933 0.2842167151006632
-0.9251020055427857 -0.2686431993710027 0.2683600394478035
-0.9085381337445627 -0.3370242880643254 0.2469272945356208
-0.8890010933100749 -0.4017492408314777 0.2197148233160929
-0.8669020238042303 -0.4623271353654956 0.1863719427082943
-0.8425140556425067 -0.518448749142408 0.1462222984277254
-0.8159009763259299 -0.569798007747948 0.0981622493470041
-0.786849553714848 -0.6158032740473377 0.04067072031970079
-0.7548379544689222 -0.6553102347140709 -0.02807416556484097
-0.7191902987447375 -0.686107747305487 -0.1096424793537834
-0.6790207287602719 -0.7050017939527378 -0.20470300544274
-0.6315915752056124 -0.7088910487473412 -0.313951529913755
-0.5739515715513533 -0.6928080120399537 -0.4365737646343151
-0.5041416378326529 -0.6509172015451657 -0.5675808363008918
0 0 0
0 0 0
0 0 0
0 0 0
0 0 0
0 0 0
0 0 0
0 0 0
-0.5769364904176012 0.6733686767329585 -0.4622974272257253
-0.612228344135064 0.7177654075398335 -0.3316463091560246
-0.6509855276283368 0.7286330371863599 -0.2128655442739283
-0.6861927716956621 0.7191291954981598 -0.1095110964916037
-0.71790069846285 0.6958253016200627 -0.02111247905623295
-0.7472432084051628 0.6623517331964981 0.05401637736791205
-0.7748729459886381 0.62108787409042 0.1175660249933247
-0.8010657329227963 0.5735506281137839 0.1712698704593036
-0.8258506804237362 0.5205758869142423 0.2167288619614409
-0.8490516248653418 0.4625798485546877 0.2552081934904215
-0.8703220053214081 0.3998004455223659 0.2875747047524172
-0.8891849096286724 0.3324957012399017 0.3143195907760684
-0.9050815292435388 0.2610892201520703 0.335648394220143
-0.9174355821227475 0.1862294102167841 0.35161137556314
-0.9257285355337321 0.1087586338785132 0.3622129733395124
-0.9295671970518157 0.02964697245705066 0.3674586822887181
-0.9287313416300957 -0.05006443894560642 0.3673576554626614
-0.9232000389096838 -0.1293029975768873 0.3619149388665648
-0.9131578762085308 -0.2070001104414912 0.3511319515446227
-0.8989788460051145 -0.2821386226183576 0.3350146743984925
-0.8811832248304674 -0.353821675406001 0.3135703211247324
-0.8603677605167994 -0.4213509372887532 0.2867589655253973
-0.8371229291634603 -0.4842672792756155 0.2543823965839239
-0.8119574368069867 -0.5423005660374235 0.2159518855887055
-0.7852346303669294 -0.5952337241581236 0.1705971538372254
-0.757111945164359 -0.6427146032443956 0.1170446122888155
-0.7274814260490901 -0.6840241805096228 0.05368142352546962
-0.6959069832954025 -0.7178177018382482 -0.02124188146911268
-0.6614884283578774 -0.7419276177529126 -0.109437055717487
-0.6227961914980051 -0.7529330640578822 -0.2126421992549656
-0.5796612595025372 -0.7443474701938307 -0.3315715124192301
-0.5399052973713284 -0.7025436418722055 -0.4636105058508862
0 0 0
0 0 0
0 0 0
0 0 0
0 0 0
0 0 0
0 0 0
-0.4560170335382032 0.7304813701699838 -0.508375287516614
-0.541119830304387 0.7583078801098646 -0.3635360892877539
-0.5880674671226199 0.7736619117650216 -0.2358471971342415
-0.6241390873619166 0.7714110180575864 -0.1239977453278533
-0.6553897353753481 0.7547740740824032 -0.02793549458451901
-0.6841035352681736 0.727396646965782 0.05381887230817451
-0.7114981066288281 0.6917682928766091 0.1233980276753808
-0.7381498613823914 0.6493885104239995 0.1828369346452043
-0.7642006421366058 0.6010784021071867 0.2338848714181194
-0.7894989858175216 0.5472134310813623 0.2779367054515597
-0.8136825808490233 0.4879270409221017 0.3159871205601164
-0.8362291363927772 0.4232921315984584 0.3486324752151219
-0.856498470891133 0.3534766423556854 0.3761178441261478
-0.8737808345306686 0.2788623259434833 0.3984254715455305
-0.8873605974969938 0.2001060159083935 0.4153898800007616
-0.8965933234536553 0.1181349888054636 0.4268073766446188
-0.9009831529391891 0.03409475300408425 0.4325123188272766
-0.900245591931836 -0.05072557964774758 0.4324173791335142
-0.8943457735409159 -0.1349761038517029 0.4265291182774211
-0.8835068470716952 -0.217333483573375 0.4149479582975351
-0.8681860498051769 -0.2965916875151974 0.3978521758399338
-0.8490199321325669 -0.3717493613425556 0.3754564784139603
-0.8267472270014388 -0.4420755368432402 0.3479342500677267
-0.8021250273582829 -0.5071261899029808 0.315306942517857
-0.7758527361985961 -0.5666933990800117 0.2773285473446504
-0.7485062606896139 -0.6206963741141034 0.2333974911391644
-0.7204731907481027 -0.6690353329118448 0.182510560595228
-0.6918746337555211 -0.7114182828293584 0.1232619893632665
-0.662454154003471 -0.7471615709411921 0.05388952358515387
-0.631414044203458 -0.7749524778351448 -0.02765794424396697
-0.5972122293094062 -0.7925121454490648 -0.123539679775401
-0.5572230910544661 -0.7963349821571524 -0.235272231656167
-0.5052991138070163 -0.7829797538853412 -0.3627885204792097
-0.414912872755284 -0.7563138725402542 -0.505802959881732
0 0 0
0 0 0
0 0 0
0 0 0
0 0 0
-0.3803060155634069 0.727906295227871 -0.5705433900186038
-0.4549198579354992 0.7847599965623263 -0.4209509124012469
-0.5131413096753912 0.8117248960352818 -0.2789062377594569
-0.554510828472732 0.81762394823675 -0.1549477988750786
-0.5872217048941566 0.8079394935643407 -0.04903513067379307
-0.6158776548182513 0.7867837581844148 0.0408170571303039
-0.6427904165570636 0.7570249299942025 0.1171910224789785
-0.6691131489656172 0.7203637588828615 0.1826571892082802
-0.6953356638916699 0.6776390570546795 0.2394026375677069
-0.7215187569440326 0.6291411187882276 0.2891230465179739
-0.7474242549787226 0.5748501932795748 0.3330228796283166
-0.772591427701268 0.5146215112506842 0.3718429587884885
-0.7963859483858179 0.4483420507199687 0.4059049479494355
-0.8180421354931147 0.3760681348471666 0.4351779205226723
-0.8367143962669469 0.2981372085782564 0.459372641698222
-0.851547177549466 0.2152363114356487 0.4780593421816102
-0.8617624025265959 0.1284125952344224 0.4907909605695167
-0.8667523759863434 0.03902540674743193 0.4972095497375579
-0.8661603885478851 -0.05134869364269976 0.4971212055140716
-0.8599323681464811 -0.1410420115229097 0.490533865497129
-0.8483285091798877 -0.2284355803756948 0.4776567032200513
-0.831891750924767 -0.3120940257230616 0.4588610180123144
-0.8113791839001977 -0.3908750195889741 0.4346038874593362
-0.7876709735052996 -0.4639931120321433 0.4053206502066476
-0.7616753777840968 -0.5310234974460526 0.3713013116562005
-0.7342440131259461 -0.5918452085888654 0.3325732675052329
-0.7061002851855518 -0.6465387025921624 0.2888080561745553
-0.6777726920674614 -0.6952558924287863 0.2392559757470592
-0.6495175995021807 -0.7380695327160567 0.1827026349378288
-0.621211664574825 -0.774792481631256 0.117442233476099
-0.592190827978457 -0.8047397998968985 0.04127805373426414
-0.5609959509309664 -0.8264043142704748 -0.04836788598033363
-0.5248988432300431 -0.8371047080018026 -0.1540678818475109
-0.4788945386935256 -0.8327905005094366 -0.2777048848521695
-0.4147594718747362 -0.8077433242296401 -0.4189573995678317
-0.3343227076436373 -0.7526331210114093 -0.5672492506036932
0 0 0
0 0 0
0 0 0
0 0 0
-0.4069265830124537 0.7683744340350743 -0.4939751867848091
-0.4432860405619216 0.827837469878666 -0.3437769766982984
-0.4820142695393534 0.8515949096916078 -0.2060299826427827
-0.5150499469643411 0.8527222694867742 -0.08711075279983591
-0.5436164921772612 0.8392264975226648 0.01341623228518816
-0.5698669394769011 0.8158342123141288 0.09831688211601387
-0.5953053547700953 0.7851463252792299 0.1707535723859743
-0.6207712379366191 0.7483946771188603 0.2335561547268531
-0.6466167259059825 0.7059630113695006 0.2889689193611195
-0.6728385302063855 0.6577460583085686 0.338612514608145
-0.6991580229600796 0.6033959133448186 0.3835250066023391
-0.7250691906026493 0.5425047500827671 0.4242207738624462
-0.749872369259225 0.4747590556478902 0.4607551072987467
-0.7727102617402266 0.4000802417718366 0.4928028526146521
-0.7926204778463354 0.3187470078994115 0.5197625641134793
-0.8086133669052 0.2314806303230254 0.5408892129147064
-0.8197740284970692 0.1394707925304091 0.5554443628597066
-0.8253754382130983 0.04432787404884862 0.5628413858067339
-0.8249807091695145 -0.05203719917737637 0.562760125986142
-0.818510848014544 -0.1475880252988661 0.5552096599221712
-0.8062608979451248 -0.2403617576124047 0.5405271407822146
-0.7888601135264525 -0.3286545874101958 0.5193128955276057
-0.767186323175543 -0.4111592029403404 0.4923141835960593
-0.7422554102411637 -0.4870316725433406 0.4602793237886723
-0.7151093809539395 -0.5558825553005157 0.4238079258157428
-0.6867198571174699 -0.6177044094638546 0.3832193893443698
-0.6579118130170853 -0.6727580943332689 0.3384502811368894
-0.6293010495517396 -0.7214377365543669 0.2889771293863757
-0.6012316863868424 -0.7641203925286691 0.2337530427743462
-0.5736966525325002 -0.8009868117133 0.1711498709738508
-0.546223484584449 -0.8317782935062751 0.09891802333351761
-0.5177112594982703 -0.8554371356343651 0.01422528616185387
-0.4862458486816384 -0.8695709862457717 -0.08608875954169795
-0.449187132268885 -0.8696506668444504 -0.2047892523084578
-0.4050496246661811 -0.8477587881066734 -0.342403035538077
-0.3628742525320975 -0.7905417656578313 -0.493321389765201
0 0 0
0 0 0
0 0 0
-0.2900809691941569 0.7595871146735699 -0.5821343887224485
-0.3689471471640952 0.8271740558653752 -0.4238644640715943
-0.4106962049958309 0.8691348377838052 -0.2755599044718591
-0.4425791245177023 0.8851921402063037 -0.1433826818626539
-0.4698306686892147 0.8822416015689858 -0.03014795548682224
-0.4946523105736526 0.8666259890600155 0.06541014240846681
-0.5185112457591672 0.842447196525643 0.1463858226993337
-0.5423666780191758 0.8118687475596122 0.2161192340131472
-0.5667636366687429 0.7757399412756568 0.2775004930800322
-0.5919195173043729 0.7341040618714334 0.3327499231825907
-0.6177820739466109 0.6865492175838481 0.3833998969029977
-0.6440600650208846 0.632448867834505 0.4303429588364909
-0.6702381382917507 0.5711448817562345 0.4738927748160595
-0.6955892479342098 0.5021101618710773 0.5138491836172557
-0.7191987260728763 0.4251066482156597 0.5495794119670047
-0.7400136081455108 0.3403329865246776 0.580132155670288
-0.756926302956165 0.2485381339006675 0.6043933883575209
-0.7688916766493672 0.1510682539900144 0.6212760837306818
-0.7750627274327605 0.04981919565682848 0.6299173090879439
-0.7749176077347301 -0.05291391121285492 0.6298434878784097
-0.7683462937956704 -0.1546700436338302 0.6210645299908583
-0.7556727663017136 -0.2530918159454378 0.6040721835768931
-0.7376064326405827 -0.3461715592111203 0.5797430483589904
-0.7151371143143546 -0.4324227600277815 0.5491716164734779
-0.689401860338645 -0.5109506432937166 0.5134729935248314
-0.6615537592477698 -0.5814250315604724 0.4735942950459252
-0.6326538246236392 -0.643980530380985 0.4301606847206124
-0.6035929562349905 -0.6990766674564601 0.383363217068975
-0.5750384823545798 -0.7473433946376332 0.3328792488318248
-0.5473923129939127 -0.7894200499285873 0.2778086399770905
-0.5207449712191106 -0.8257742767825709 0.2166137547669335
-0.494810334071361 -0.856465172805668 0.1470718908124342
-0.4688311914218056 -0.8807965202613656 0.06629331674821735
-0.4414673917644005 -0.8968065884502434 -0.02906002272835378
-0.410726972048146 -0.9006200315743578 -0.1420806572308966
-0.3739078034333435 -0.8860601338521698 -0.2740262646709739
-0.3257805915022928 -0.8460812495856678 -0.4219164909078222
-0.2404889971835901 -0.7799156471664195 -0.5778378886319376
0 0 0
0 0 0
-0.3183250468246989 0.7897535690989969 -0.5243648201962527
-0.3463654366841505 0.8642047005374218 -0.3649400222497144
-0.373484653709264 0.9015493706717922 -0.2184443766384605
-0.397563471085022 0.9130579204917584 -0.09093140428968442
-0.4197049758791307 0.907496624220237 0.01725138403640552
-0.4410299148594414 0.8908999910247799 0.1085809384335959
-0.4623816933712219 0.8668357629306814 0.1865447124405949
-0.4843259578258751 0.8370346065189732 0.2545612579825847
-0.5071894856562748 0.8020118439637582 0.3154929916520733
-0.5310914084199061 0.7615336432764291 0.3714948533434724
-0.5559544578497891 0.7149347958672567 0.4240081113082514
-0.5814995361030149 0.6613418120012934 0.4737987940157975
-0.607232739113323 0.5998538322475038 0.5210026684067117
-0.6324364182299784 0.5297175835198147 0.5651755997974109
-0.6561781293480543 0.4505113664503765 0.6053674679600006
-0.677352134680462 0.3623294278316574 0.6402432907660995
-0.6947644580473297 0.2659353710795844 0.6682669573179294
-0.7072619454903899 0.1628385325836778 0.6879419690403709
-0.7138893520557714 0.05524937917996441 0.6980755683460198
-0.7140418066455585 -0.05410564228536927 0.6980092247493825
-0.7075721488955956 -0.1622869170132507 0.6877533065522859
-0.694820843547439 -0.2664957210422624 0.6679850492624738
-0.6765595443729852 -0.3643923709070803 0.6399104491587359
-0.6538668052404487 -0.4543065673680116 0.6050320188642438
-0.6279722926016695 -0.5353091115096481 0.5648849040816665
-0.6001073092006921 -0.6071579215689922 0.5207979221540018
-0.5713873842532131 -0.6701590809063545 0.4737122157967013
-0.5427354650598339 -0.7249892043797412 0.4240623403452786
-0.5148398091277463 -0.7725128549268936 0.3717039950148577
-0.4881325482580045 -0.8136068380690514 0.3158647311404462
-0.4627725007986805 -0.8489793012861908 0.255099507040186
-0.4386170265207133 -0.8789492249601505 0.187252140142851
-0.4151727057650176 -0.903133462640095 0.1094603720415075
-0.3915294800839693 -0.9199834839586531 0.01830452043825904
-0.3663208683813983 -0.9261538744567216 -0.08971076979438375
-0.3378364352488779 -0.9158266404867477 -0.2170900909601526
-0.3047192366974396 -0.8803154174171021 -0.3635807374494451
-0.2702689826801521 -0.8079625436045125 -0.523594504490986
0 0 0
0 0 0
-0.2994280894175662 0.8300809881697877 -0.4704342380682066
-0.3118842664282163 0.8973826422484623 -0.3121419512748983
-0.329240749853548 0.928871731168439 -0.1696992506524999
-0.3471826630618077 0.9366094923670898 -0.04718958865229735
-0.3650452680334227 0.929280796506331 0.05638398292924007
-0.3831147823766831 0.9123787948689623 0.144180436252378
-0.4017940095684001 0.8889358623973023 0.2198968085691831
-0.421399856958678 0.86028030030466 0.2869494127244888
-0.4421290914845118 0.8266342430865583 0.3481345926790275
-0.4640513691527981 0.7875281542709299 0.4055314205065191
-0.4870941438767067 0.7420776865610529 0.4604997308459726
-0.5110161163946926 0.689183809177376 0.5137005021923254
-0.5353754808572465 0.6277087451144042 0.565114878413028
-0.5595035727128617 0.5566637534513202 0.6140693916122435
-0.5824982799269439 0.4754234076344644 0.6592938171675696
-0.6032538951935741 0.3839545516706802 0.6990448055633821
-0.6205415055152096 0.2830193782191504 0.7313195412987143
-0.6331433201763257 0.1742901668210755 0.7541567966050426
-0.6400254518072521 0.06031186158821212 0.7659829635120395
-0.6405124554243808 -0.05572109268262249 0.7659235955867167
-0.6344147214487141 -0.1703478500972409 0.7539891054759331
-0.6220678092327585 -0.280293882236358 0.7310724863494907
-0.6042713285681016 -0.3828718957939026 0.6987598105799471
-0.5821494306116851 -0.4762339516820789 0.659016891819748
-0.5569768662033946 -0.559439422130674 0.6138438754930629
-0.5300156876628259 -0.6323645492817304 0.5649765018503115
-0.502392424309303 -0.695513904798538 0.5136752478254242
-0.4750248954578927 -0.7497968253668366 0.4606040266487375
-0.448591178650476 -0.7963124666495532 0.4057738408220525
-0.4235245796648044 -0.8361590471447902 0.3485182610677192
-0.4000165829484083 -0.8702558345251621 0.2874743742339343
-0.3780120915981587 -0.899143753263957 0.2205614870551718
-0.3571875240069861 -0.9227121022245195 0.1449808577094435
-0.3369195789861373 -0.9397877024715184 0.05730856462264303
-0.3163040374468341 -0.9475334770436655 -0.04617429778970585
-0.2944357512797007 -0.9406660167591669 -0.1686861976653699
-0.2715953265442384 -0.9106402692209505 -0.3114005116767192
-0.2530818753788101 -0.8451570330062045 -0.470806917870684
0 0 0
0 0 0
-0.2499826410795093 0.8705166961896725 -0.4239214087704581
-0.2620918715448998 0.9272990008833779 -0.2672534636459927
-0.2767316707443112 0.9521972598454392 -0.1293830002353423
-0.291421874714939 0.9565238925543326 -0.01163331037740871
-0.3061314703101665 0.9479146815501791 0.08798454061571004
-0.3212302144568714 0.9310687606327009 0.1729800921894713
-0.3370572573581834 0.9084740541990797 0.247117984188254
-0.3538583121232358 0.8810967928688959 0.3137717905380281
-0.3717901216698597 0.8489074030960372 0.3756705024319213
-0.3909200362148053 0.8112356661537873 0.4348312537592434
-0.4112081460314062 0.7670060106634522 0.4925542003105333
-0.4324746602660895 0.714913687675839 0.5494215934976191
-0.4543596279750851 0.653594088207938 0.6052867884944919
-0.4762853974563981 0.581822350887584 0.6592685129576911
-0.4974365245951726 0.4987590099535716 0.7097861325700924
-0.5167754490900097 0.4042275394189981 0.7546808806330529
-0.5331112867910843 0.2989736401789356 0.7914588545048378
-0.5452292329089529 0.1848254488689375 0.8176580196096102
-0.5520680207876468 0.06466775910378392 0.8312875443287386
-0.552907708518798 -0.05782055692322231 0.8312339316086534
-0.5475129207858861 -0.1786379797658225 0.8175072316240958
-0.536182869824133 -0.2940225511887344 0.7912386931259268
-0.5196917408678894 -0.4009426127823248 0.7544305903984704
-0.4991431840236702 -0.4973904863710121 0.7095482970949334
-0.4757880150106727 -0.5824404665522362 0.6590818368720356
-0.4508552710781786 -0.6561133920085608 0.6051815771882372
-0.4254291879374306 -0.7191311357270763 0.549418252043726
-0.4003811899466189 -0.7726429025002305 0.4926640315194
-0.3763476687548913 -0.8179770936055877 0.4350585093516891
-0.3537353117454072 -0.8564369382578541 0.3760147603643925
-0.3327344032673957 -0.8891273320394716 0.3142298590246646
-0.3133231681021569 -0.9167775051165422 0.2476844735600421
-0.2952512375129837 -0.9395072904195121 0.1736454951780706
-0.2780012412435405 -0.9564739665990809 0.08872914450883751
-0.2607595956790364 -0.9653427658169483 -0.01085254560872374
-0.2425287331231567 -0.961574973960182 -0.1286599512791426
-0.2228516161620773 -0.9376319011517102 -0.2668025020808071
-0.204920105587038 -0.8820253477264239 -0.4243100709319511
0 0 0
-0.08186928419815113 0.8285811433549617 -0.553850800470186
-0.1683405310712832 0.906503111809746 -0.3871867429004831
-0.2004819512451234 0.9515530544756983 -0.2331389537227017
-0.2181522328903792 0.9709065676994397 -0.09874229125878373
-0.231538956368299 0.9727014459096626 0.01554377075005148
-0.2437537265070652 0.9633110110367438 0.1123210435728079
-0.2559538956999232 0.9467390939769041 0.1953783284088147
-0.268662400269406 0.9250388688355916 0.2685583843875475
-0.2821605038496685 0.8988932383784664 0.3352258881184063
-0.2966166420027928 0.868073838099287 0.3980783582343548