# OOMMF: rectangular mesh v1.0
# Segment count: 1
# Begin: Segment
# Begin: Header
# Title: 
# Desc: time = 1.68e-09
# Desc: stepsize = 8.884108624525594e-14
# Desc: step = 10750
# meshunit: m
# valueunit: (none)
# valuemultiplier: 384000.0000000001
# xmin: 0
# ymin: 0
# zmin: 0
# xmax: 9.357999999999999e-08
# ymax: 9.357999999999999e-08
# zmax: 2.3395e-08
# ValueRangeMaxMag: 1
# ValueRangeMinMag: 0
# meshtype: rectangular
# xbase: 1.16975e-09
# ybase: 1.16975e-09
# zbase: 1.16975e-09
# xstepsize: 2.3395e-09
# ystepsize: 2.3395e-09
# zstepsize: 2.3395e-09
# xnodes: 40
# ynodes: 40
# znodes: 10
# End: Header
# Begin: Data Text
0 0 0
0 0 0
0 0 0
0 0 0
0 0 0
0 0 0
0 0 0
0 0 0
0 0 0
0 0 0
0 0 0
0 0 0
0 0 0
0 0 0
0 0 0
0 0 0
-0.8373611318626216 0.03081887136623876 -0.5457806629163952
-0.8472090446624442 0.04914780978486538 -0.5289814055668675
-0.8577488105529336 0.02970231762058147 -0.5132102398851697
-0.8632872395601259 -0.005435954449737412 -0.5046836557804082
-0.8620288241188414 -0.04508075103336275 -0.5048505048769932
-0.8540479916340536 -0.0805859261478863 -0.5139143279698731
-0.8413471068261629 -0.1006595227715805 -0.531039270026843
-0.8300722020040071 -0.08264106303228534 -0.5514984987840963
0 0 0
0 0 0
0 0 0
0 0 0
0 0 0
0 0 0
0 0 0
0 0 0
0 0 0
0 0 0
0 0 0
0 0 0
0 0 0
0 0 0
0 0 0
0 0 0
0 0 0
0 0 0
0 0 0
0 0 0
0 0 0
0 0 0
0 0 0
0 0 0
0 0 0
0 0 0
0 0 0
0 0 0
-0.7810492497439536 0.2424070498257823 -0.5755005574881464
-0.8090943477470756 0.2718574334923624 -0.5210181112962192
-0.8462705378096308 0.2544016362149104 -0.46808758189742
-0.8831127279887642 0.2060235220062455 -0.4215047070251818
-0.915418796607541 0.1240149715084465 -0.3829212891174372
-0.9287695944596228 0.08312031973616521 -0.3612174592323362
-0.9371348159122006 0.04389587027449581 -0.3461957385324804
-0.9410216414355861 0.0007295245164262921 -0.338345589809967
-0.9399072086566863 -0.04427694016955529 -0.3385468825501382
-0.933808357106197 -0.0877299693069792 -0.3468506950894301
-0.9232472887812149 -0.1274877147633093 -0.3624380310378099
-0.9075043211371507 -0.1689634725282347 -0.3845611161682873
-0.8715298281052337 -0.250752458144013 -0.4213774595983937
-0.8311098364402545 -0.3003889063447283 -0.4679988725598284
-0.7907900551596345 -0.3195210896487857 -0.5220702653190223
-0.7606191778262207 -0.291568831840029 -0.5800397250382116
0 0 0
0 0 0
0 0 0
0 0 0
0 0 0
0 0 0
0 0 0
0 0 0
0 0 0
0 0 0
0 0 0
0 0 0
0 0 0
0 0 0
0 0 0
0 0 0
0 0 0
0 0 0
0 0 0
0 0 0
0 0 0
0 0 0
-0.7533070922992361 0.3365636765018881 -0.5650250581622038
-0.7912042775579652 0.3648144801929653 -0.4908219496064883
-0.8467231161427607 0.3275188629500831 -0.4192748012954951
-0.8809399353135408 0.306213826572695 -0.360801777691687
-0.9112440807209898 0.2728567219393938 -0.3085181269284603
-0.9382172953930573 0.2239021439592543 -0.2638487001214622
-0.9596318620960483 0.1626700141923918 -0.2294453218802179
-0.9721481181120297 0.109051262737821 -0.2074508581484419
-0.9793669909816737 0.0582059092585832 -0.193526145786256
-0.9824052916242954 0.007111133511473808 -0.1866260291834028
-0.9813928972297354 -0.04443590612292551 -0.1867978359458688
-0.9763136188595007 -0.09571705433247796 -0.1940359841353614
-0.9669750256314612 -0.1469299520690516 -0.2082567861799956
-0.9521024528894154 -0.201053320205439 -0.2303876768326099
-0.9278545036346031 -0.2628412735745682 -0.2645760476511103
-0.8979521591219025 -0.3128208921948784 -0.3095561489208586
-0.8647877101742825 -0.3475061434091889 -0.3624661316928701
-0.8277652959116881 -0.3702996178758228 -0.4215243858725782
-0.7689727410116236 -0.4084536313281013 -0.4917789692900228
-0.7285050755622915 -0.3820926657001305 -0.568582051860721
0 0 0
0 0 0
0 0 0
0 0 0
0 0 0
0 0 0
0 0 0
0 0 0
0 0 0
0 0 0
0 0 0
0 0 0
0 0 0
0 0 0
0 0 0
0 0 0
0 0 0
0 0 0
0 0 0
-0.7565550410675091 0.417201898828963 -0.5035544116069748
-0.8079617564491767 0.4168171933892265 -0.4164867673896599
-0.847949270236747 0.4068766730092056 -0.3397549235344903
-0.886227670909266 0.3755313798135566 -0.2712502499354851
-0.915980868135205 0.3392542708416705 -0.2142092176493861
-0.9408122979378608 0.2956495639800796 -0.165721318385023
-0.9617193081083998 0.2435428932608532 -0.1256297399250378
-0.9781009277645172 0.1851512614920006 -0.09506621626062015
-0.9891251440397872 0.1268770541353805 -0.07438859161321056
-0.9956863037814672 0.0694243201936955 -0.06155524533004742
-0.9983905828202859 0.01216011595684618 -0.05539292116945131
-0.997434445007109 -0.04516516895709628 -0.05553949429402993
-0.9927974069841881 -0.102524825799592 -0.06198361703091358
-0.9842318651372939 -0.1601665172059867 -0.07506212370075575
-0.9710623741328671 -0.2187149545716547 -0.09592514889307174
-0.9523491968935096 -0.2774776246483697 -0.1266379682235344
-0.9290256373622368 -0.3301657471278341 -0.16703875163329
-0.9017083388908463 -0.3745893193396712 -0.2158817116185429
-0.8693010412145483 -0.4119788368649183 -0.2731101201323941
-0.8280164709910259 -0.4447413700208653 -0.3414583979923914
-0.7849539502760368 -0.4565687390024757 -0.4187986180871822
-0.7306836658825285 -0.4578612602265605 -0.506423189433713
0 0 0
0 0 0
0 0 0
0 0 0
0 0 0
0 0 0
0 0 0
0 0 0
0 0 0
0 0 0
0 0 0
0 0 0
0 0 0
0 0 0
0 0 0
0 0 0
-0.6508151933671117 0.5066107352863516 -0.5654954880236893
-0.7024090381734858 0.5421014001007417 -0.4612457209568601
-0.7827886660202602 0.5073589018785186 -0.3603177056915808
-0.8325623664118116 0.4807891210221911 -0.2751031209228141
-0.8693973257275631 0.4509086955478024 -0.2020634511660634
-0.9003538170987214 0.4122783047061553 -0.1392465565261123
-0.9258872536910134 0.3676980748715591 -0.08678086879180952
-0.9472753288800619 0.317500595204641 -0.04316043720664241
-0.9650997321179423 0.2617674262399085 -0.007766699788799735
-0.9792340748986679 0.2018150104066805 0.01926987628141519
-0.9893846048718378 0.1402260189671757 0.03814141118540471
-0.9956855503031662 0.07820726694168428 0.04993904599601681
-0.9983262065341357 0.01604799946307956 0.05556300082243995
-0.9973944176856557 -0.04617176239377427 0.0554305324432657
-0.992875510308758 -0.1083660165197678 0.04954823400243832
-0.9846525128207014 -0.1704477575594733 0.03750987788336092
-0.9725128137812749 -0.2321198734823523 0.01841714868712369
-0.9563202181329162 -0.2921874410599655 -0.008839664984590634
-0.9363939103434613 -0.3481198413925777 -0.04448618550165467
-0.9128345794470113 -0.3986618907785209 -0.08832738763651947
-0.8849668753251542 -0.4438293661690311 -0.1408869167212786
-0.8513764039617647 -0.4834088014222599 -0.2036520303965249
-0.8115213257109058 -0.5146782484896566 -0.2766576195372767
-0.7581257116884008 -0.5427883565919711 -0.3614224747095042
-0.6732171319906081 -0.5787068956558217 -0.4603010125067524
-0.6178048299468277 -0.5455854364474987 -0.5662629456628456
0 0 0
0 0 0
0 0 0
0 0 0
0 0 0
0 0 0
0 0 0
0 0 0
0 0 0
0 0 0
0 0 0
0 0 0
0 0 0
-0.6289611351905473 0.5524774285048324 -0.5469703661191391
-0.6923042778342711 0.5762392721007812 -0.4343536441439505
-0.743790523850924 0.5817443761002822 -0.3291643016872595
-0.7957257043101368 0.5591531306862307 -0.232741014743692
-0.8364602329405508 0.5266926118172178 -0.1514238137354764
-0.8689089584138912 0.4879063767370621 -0.08333420382650815
-0.8961431226243417 0.4429911986065422 -0.02619736113108569
-0.9193325346831183 0.3929060894197405 0.02127194325865586
-0.9391594828880302 0.3381335968830805 0.06037496468236855
-0.9558750022637578 0.2790341165934908 0.09188548211850764
-0.9693664855230363 0.2164449010005121 0.1161043564023108
-0.9793886398031507 0.1516922422955202 0.133369246274735
-0.9858036083459627 0.0857963402777156 0.14432682968537
-0.9885603249620817 0.01935255297142954 0.1495792853451002
-0.9876384247097491 -0.04726159755389815 0.1494546199804405
-0.9830284440072047 -0.1137175754086743 0.1439562131897951
-0.9747353615753663 -0.1796253514820279 0.1327618469271094
-0.96280521523983 -0.24437362687138 0.1152720607810558
-0.9473838839591929 -0.3069396651848613 0.09083951976204703
-0.9287261020378994 -0.366020794107572 0.05913210358469254
-0.9069223200349098 -0.4208283080609679 0.0198856872408028
-0.8816551864682487 -0.4710845250295721 -0.02763154811622824
-0.852134379575873 -0.5164208371874992 -0.08471433210150206
-0.8170466562440145 -0.5559908513159584 -0.1526726392430228
-0.773107559429184 -0.5896537651195529 -0.2336945417286959
-0.71724450064024 -0.6139292180666084 -0.3296228777033759
-0.6615683744066908 -0.6107790773398712 -0.4350588519599887
-0.5944493050073213 -0.588798652593767 -0.5476734158968066
0 0 0
0 0 0
0 0 0
0 0 0
0 0 0
0 0 0
0 0 0
0 0 0
0 0 0
0 0 0
0 0 0
-0.5858631525527628 0.5974406667190187 -0.5475664491468336
-0.6546148154607443 0.6252828493787885 -0.4248538591704661
-0.707993705142247 0.6337189389286192 -0.3116812793899199
-0.7519771863334834 0.624767656443745 -0.2102277020179965
-0.7915073082035584 0.5990606079838647 -0.1210064833897698
-0.8253681790823133 0.5627406319970035 -0.04572034621434131
-0.8543888280970695 0.5193563382108085 0.01699189168915801
-0.8797538278231967 0.4703686649026503 0.06918469128449464
-0.9021115442761435 0.4165851099228632 0.1124793664378801
-0.9217222946823552 0.3584506957051489 0.1481253193548878
-0.9385564949856741 0.2963369462059913 0.1769070943560863
-0.9523739638387591 0.2308420974128005 0.1992379458439294
-0.9628470119048518 0.1628311302842426 0.2154336433249311
-0.9696894161373595 0.09316994983837541 0.2258800493144558
-0.9727062348694765 0.02258647362291271 0.2309381559104678
-0.9717970511605821 -0.04830244531979198 0.2308189011578661
-0.9669532566036285 -0.1189109691690612 0.2255251226690969
-0.9582624450529756 -0.1886047971799514 0.2148518486813681
-0.9459178276478251 -0.2566302760684736 0.1984448657512661
-0.9302151152819376 -0.3221019044190669 0.1759266962988317
-0.9114928077600234 -0.3841528829601449 0.146994639069449
-0.889986220361083 -0.442206385359627 0.1112566416649637
-0.8656931421386828 -0.4959421695078472 0.06794665670880091
-0.8382867484123919 -0.5450001370272458 0.01581701857056779
-0.807007088057806 -0.5886872336067036 -0.04676431131692507
-0.7705006389434286 -0.6256843571463485 -0.1218517566969307
-0.7277570267716574 -0.6526207992102799 -0.2108454467675599
-0.6799360696820997 -0.6634945201182206 -0.3121889859017294
-0.6221371968428852 -0.6574371577474187 -0.4251137399772825
-0.5491524716572048 -0.6315622032820595 -0.5473214286489182
0 0 0
0 0 0
0 0 0
0 0 0
0 0 0
0 0 0
0 0 0
0 0 0
0 0 0
-0.5423733451261316 0.6204472072250344 -0.566459546254933
-0.607674712129189 0.6643885710860312 -0.4351083438052739
-0.6604443385383287 0.6829498192496152 -0.3120782275000724
-0.7037280707161998 0.6810172801798607 -0.2024407730238146
-0.7405913372796961 0.6633742177196177 -0.1070472718529353
-0.7735661854313742 0.6332164091383716 -0.02514629107956856
-0.803321000326733 0.5939246874530246 0.04391851623043622
-0.8303462570120445 0.547888885602972 0.1016998647925388
-0.8550386613352328 0.4963937402142402 0.1500071408239273
-0.8775448733538942 0.4400938112485414 0.1903481876746668
-0.8977746074635526 0.3793495169596071 0.2238184491416562
-0.9154518613594963 0.3144835655371658 0.251093561328171
-0.9301741552698893 0.2459777036466148 0.2725270815472938
-0.9414927057937637 0.1745281337130143 0.288325190505077
-0.9490010841238364 0.1009521316001528 0.2986730812396188
-0.9523981017307998 0.02609155779259491 0.303738516542641
-0.9515196935124038 -0.04922034335056342 0.3036241602022358
-0.94635300519354 -0.1241488383511933 0.2983337987845229
-0.9370414583165808 -0.1978382608147058 0.2877730493874425
-0.9238785191001382 -0.2694103513964196 0.2717840034030559
-0.9072775193628043 -0.3380103653727869 0.2501929170848584
-0.8877031284917897 -0.4029150935066211 0.2228061558629818
-0.8655722738654491 -0.4636342770417338 0.1892825820496541
-0.8411631150770575 -0.5198627499278582 0.1489541374762889
-0.8145432672407021 -0.5712915256560958 0.1007236740114842
-0.7855016383589389 -0.6173587304593919 0.04307405322221352
-0.7535165365130054 -0.6569218776396293 -0.02581619413987602
-0.7179096152725032 -0.6877825861164732 -0.1075216189155562
-0.6777892005208643 -0.706757477285057 -0.2027206648542496
-0.6304090578847398 -0.7107498854734994 -0.3121202012627211
-0.5728056502621418 -0.6947943925829693 -0.4349188879124783
-0.5030012382254938 -0.6530522016752734 -0.566138301328127
0 0 0
0 0 0
0 0 0
0 0 0
0 0 0
0 0 0
0 0 0
0 0 0
-0.5754175328019351 0.6757151228356985 -0.4607642951827647
-0.6106566851675821 0.719925672424092 -0.3298566947097772
-0.6493408443620448 0.7306663126017824 -0.2109104252333219
-0.6844719487481264 0.7210815781352681 -0.1074221069002687
-0.7161098697827145 0.6977317807772392 -0.01889488007915387
-0.7453945277577783 0.6642358115347382 0.05637184282552414
-0.7729830648869289 0.6229596076835722 0.1200770943716526
-0.7991541964475294 0.5754054575605827 0.1739572640328636
-0.8239382384695638 0.5223950839550257 0.2196113736747101
-0.847158422972221 0.4643321849395078 0.2582987193474277
-0.8684656889974219 0.4014446789400288 0.2908771506752797
-0.8873787629225509 0.3339838434270076 0.3178265618914927
-0.9033328555085951 0.2623705593397435 0.33933971437254
-0.9157445515833006 0.1872553674723188 0.3554537151280123
-0.9240879299456477 0.1094880493625227 0.3661609820496401
-0.9279633640797307 0.03005110212717516 0.3714578390433705
-0.92714638233776 -0.04999828469351184 0.3713485656976609
-0.9216148161624619 -0.1295698724946388 0.3658384599403869
-0.9115552175503526 -0.2075783153364039 0.3549342592070102
-0.8973462449241502 -0.2829927556255643 0.3386514683032925
-0.8795145463046806 -0.354907228331046 0.3170094984647087
-0.8586637902908102 -0.4226194213540144 0.2899815855150406
-0.8353909397136974 -0.4856711217508455 0.2573820882298149
-0.8102100344615598 -0.5437972924274223 0.2187331817681118
-0.7834880774535217 -0.5967893575775618 0.1731730209078342
-0.7553841510418734 -0.6443061810413051 0.1194333681460774
-0.7257898076913428 -0.6856413122849876 0.05590300474467422
-0.6942662802180946 -0.7194628797642294 -0.01917020588025895
-0.6599085579827938 -0.7436150418780546 -0.1075051840320647
-0.621280287295622 -0.7546869442243779 -0.2108516559933531
-0.5782027004489922 -0.746202783790801 -0.3299439992731365
-0.5384824106902379 -0.7045527956431623 -0.4622142917831874
0 0 0
0 0 0
0 0 0
0 0 0
0 0 0
0 0 0
0 0 0
-0.4542674946967015 0.7326447240568388 -0.5068261551791307
-0.5393154738026941 0.7603745472016277 -0.3618969020106346
-0.5861827229573443 0.7756280834449031 -0.2340745425668904
-0.6221619583719812 0.7733085331772442 -0.1221000002866475
-0.653318230735965 0.7566397825830861 -0.02591387274507547
-0.6819427042799489 0.729260462882639 0.05597611415192085
-0.7092586367215539 0.6936487818772606 0.1257121857103556
-0.7358473295337676 0.6512908477169009 0.1853346683656963
-0.7618545820157462 0.6029932876510173 0.2365939367554235
-0.7871314769350528 0.5491170188640999 0.2808817146270747
-0.811316402669384 0.4897818877758628 0.3191855215487087
-0.8338855539468821 0.4250492878867646 0.3520908771690274
-0.8541949107047648 0.355078937242305 0.3798289126079705
-0.8715287099663318 0.2802490109486284 0.4023657534715606
-0.8851637222125115 0.2012185759368673 0.4195190932208331
-0.8944473486254005 0.1189236702749365 0.431069717314182
-0.8988764293093833 0.03452471208899692 0.4368400268830506
-0.8981614538115686 -0.05066965771612734 0.4367362919131169
-0.8922658602699995 -0.1352880386833199 0.4307653435292323
-0.8814147034867115 -0.2179866584610881 0.4190345298545226
-0.866070208116389 -0.2975429369029164 0.4017344835988327
-0.8468758525628923 -0.3729446903301009 0.3790956980769615
-0.8245778753489001 -0.4434565420505823 0.3513084439600519
-0.7999402203853507 -0.5086360342466912 0.318410157620065
-0.773667581131487 -0.5682817386836758 0.2801684125393361
-0.7463390518726387 -0.6223229222309193 0.2359919492606035
-0.7183431018885515 -0.6706720972047147 0.1848840880123623
-0.689799505009965 -0.7130505146259689 0.125441645714841
-0.6604485493290759 -0.7487875496618855 0.05590097638206319
-0.6294876563330665 -0.7765822267835207 -0.02579409948516868
-0.5953684778932552 -0.7941652455004167 -0.1218110765502491
-0.5554573333839684 -0.798036612754536 -0.2336765189171504
-0.5035960007534117 -0.7847509870960205 -0.3613266614533036
-0.4132427605571745 -0.7581460854689287 -0.5044253502107369
0 0 0
0 0 0
0 0 0
0 0 0
0 0 0
-0.3783184479917151 0.7300052129448349 -0.5691814657756394
-0.4529005817129891 0.7867280418374712 -0.4194520845944306
-0.5110490726878905 0.8135923872547752 -0.2773017719126985
-0.5523194906007776 0.8194270576887155 -0.1532399341885508
-0.5849169316781681 0.8097175882983431 -0.04721874878172421
-0.6134539932486502 0.7885721559853964 0.04275690554551174
-0.6402494157301037 0.7588499883183751 0.1192785851964296
-0.6664626032774101 0.7222402162909186 0.1849234122677375
-0.6925892474264864 0.6795683998202775 0.2418820462847963
-0.7186953925888403 0.6311104194469985 0.291850254646121
-0.744546958082825 0.5768314761123868 0.3360286823704435
-0.7696854996724425 0.5165720388034539 0.3751500504070666
-0.7934766382237577 0.450205861977276 0.4095235114549851
-0.8151519379236664 0.3777792796398659 0.4391015075971325
-0.8338603953198168 0.2996248281654376 0.4635750246334571
-0.8487389017394616 0.216431516881036 0.482493186661393
-0.8590008180019625 0.1292563571808005 0.4953891286658479
-0.8640304435710728 0.03947624654162132 0.5018894485256286
-0.8634653117266003 -0.05130892341665843 0.5017918391352209
-0.8572490851698698 -0.1414055650318195 0.4951045062948353
-0.8456436175642111 -0.2291702138999533 0.4820455218482619
-0.8291968793271155 -0.3131478864717841 0.4630020912613971
-0.8086730858008818 -0.3921838798652101 0.4384514165505106
-0.7849600346145479 -0.4654882601494169 0.408850123787429
-0.7589726941424865 -0.5326389373052496 0.3745079598785976
-0.7315674574593087 -0.5935232118246522 0.335468705264546
-0.7034700642603274 -0.6482334649509787 0.291415928883818
-0.6752088469898012 -0.6969353495922319 0.2416073911027058
-0.6470377781248815 -0.7397157055527669 0.1848317847064951
-0.6188293397891639 -0.7764007042076256 0.1193825561881201
-0.589913946807203 -0.806317217885102 0.0430590234953916
-0.5588257936358633 -0.8279677997990484 -0.04672317265736479
-0.5228286254667101 -0.8386778701189775 -0.1525439561742314
-0.4769072904215767 -0.8343992079955486 -0.2762922330416663
-0.4128257037310162 -0.8094109692182513 -0.4176467661172074
-0.3323999590248802 -0.754387175997584 -0.5660479272381866
0 0 0
0 0 0
0 0 0
0 0 0
-0.4047042466902691 0.7703198001052817 -0.4927695995864804
-0.4410124800426934 0.8296291345062381 -0.3423791635380613
-0.479647461270302 0.8532939259860689 -0.2045184313753524
-0.5125616063192995 0.8543827739798788 -0.0855024868283133
-0.5409879242440356 0.8408942510918018 0.01513024464068467
-0.5670874756043044 0.8175449685453465 0.1001599691439901
-0.5923716012854222 0.7869247162871543 0.1727581456456555
-0.6176868513245214 0.7502532611338167 0.2357604671247302
-0.6433923002158752 0.7079011757351519 0.2914142642626027
-0.669491265737133 0.6597487153370679 0.341340120280021
-0.6957108482675998 0.605432378893866 0.3865721797927136
-0.7215492254478474 0.5445283106110543 0.4276162230302798
-0.7463086522243122 0.4767079517198739 0.4645136428375085
-0.7691309379789352 0.4018806413396036 0.4969200643565438
-0.7890497502841624 0.3203184840102053 0.5242104161287756
-0.8050688281562794 0.2327440007129189 0.5456137938718368
-0.8162650231398765 0.14035759532712 0.560366984602452
-0.8219031005305349 0.04478975220113096 0.5678636908942619
-0.8215398505508136 -0.05202121993881794 0.5677729005799971
-0.8150933549688888 -0.1480083545236902 0.5601038740061971
-0.8028597073601688 -0.2411799541086773 0.5452050256863739
-0.7854726901703394 -0.3298095663339766 0.5236967662217935
-0.7638167504858331 -0.4125761767922449 0.4963515588982833
-0.7389147611654885 -0.4886317778416285 0.4639439205497558
-0.7118145402008603 -0.5575912472761483 0.427097250423913
-0.6834913245576398 -0.6194576118870767 0.3861500697003719
-0.6547710894101042 -0.6745057611231117 0.3410524867002684
-0.6262681175941112 -0.7231451869724157 0.2912890033004297
-0.5983229051909824 -0.7657679730475293 0.2358158446298726
-0.5709231759626517 -0.8025685856366066 0.1730040245138096
-0.5435901273633821 -0.833300297274718 0.100600139139705
-0.5152155868312942 -0.8569155946267298 0.01576587363905401
-0.4838772090596261 -0.8710306006666838 -0.08466722656909517
-0.4469254822034684 -0.8711231711814427 -0.2034748976851528
-0.4028644209954002 -0.8492830241925416 -0.3412017044424176
-0.360723274233843 -0.7921701257615746 -0.4922857008657737
0 0 0
0 0 0
0 0 0
-0.287672585991304 0.7613583426177435 -0.5810145931002403
-0.3665141236912811 0.8288628533937569 -0.4226745407506476
-0.4081877016465231 0.870726627198903 -0.2742588939512282
-0.4399540707789703 0.8867242552847715 -0.14198771318209
-0.4670569190910522 0.8837626004836102 -0.02866182680187138
-0.4917054752698946 0.8681798865362605 0.06700306115015794
-0.5153744105994222 0.8440683341400497 0.1481143619009946
-0.5390304070668187 0.8135803882487869 0.2180210359445443
-0.5632261060038265 0.7775535727131387 0.2796190177309106
-0.5881867028336112 0.736018323196685 0.335131959873219
-0.6138677416803341 0.6885483675672677 0.3860926588848028
-0.6399853690416096 0.6345011115455966 0.4333902016198294
-0.6660305468357982 0.5732012824294004 0.4773296560060956
-0.6912807076778587 0.5041049306247379 0.5176960518607677
-0.7148230269034372 0.4269597911749984 0.5538351532075309
-0.7356032606916855 0.3419559198490721 0.5847683231331314
-0.7525094149846316 0.2498424545414748 0.6093507432244403
-0.76448963264377 0.1519767029249953 0.6264652291613964
-0.7706893656480346 0.05027694796088819 0.6352244722779243
-0.7705803308137203 -0.05293041428961472 0.6351411850967833
-0.7640488337548688 -0.1551491101241089 0.6262253055135358
-0.7514187655081143 -0.2539886864619817 0.6089824184585118
-0.733402645794233 -0.347416005042524 0.5843138528071288
-0.7109953036833918 -0.4339299850827463 0.5533447805719761
-0.6853389724398278 -0.5126326363989173 0.5172216864689798
-0.657590607403008 -0.5832001625367488 0.4769194517656544
-0.628812843049413 -0.645780075160201 0.4330848680595974
-0.5998956895213474 -0.7008481591015334 0.3859235929270173
-0.5715033065645124 -0.7490513081247986 0.3351210354220642
-0.5440326588926454 -0.7910447575365812 0.2797796590749397
-0.5175680784056813 -0.8273101184183368 0.2183603722704449
-0.4918164098332712 -0.8579183687251118 0.148636104707954
-0.466012768882705 -0.8821832952497499 0.06771065514796329
-0.4388087154902327 -0.8981515237085389 -0.02776241469759393
-0.4082033817910298 -0.901954040785703 -0.1408861505070965
-0.3714852497071356 -0.8874162937229703 -0.2729304506371783
-0.3234150107984752 -0.8474839356140581 -0.4209200751524312
-0.2381255406915579 -0.7813497703629495 -0.576878464864237
0 0 0
0 0 0
-0.3157330566854501 0.7913799998548106 -0.5234790661964064
-0.3437376128406853 0.8656999244802345 -0.3638792303409231
-0.3707620569655266 0.9029551235786482 -0.2172729663758453
-0.3946991571227993 0.9144239848284793 -0.08967358215749001
-0.4166607655398349 0.9088718039556326 0.01859705444935015
-0.4377749051451567 0.8923259821191402 0.1100339677566001
-0.4588920845443983 0.8683447087036068 0.1881369756558878
-0.4805852910327975 0.8386483565329166 0.256333205276957
-0.5031890536963823 0.8037413273434761 0.3174911887915718
-0.5268307212711866 0.7633776849927717 0.3737698505497161
-0.5514416993480201 0.7168782551032673 0.4266117902499433
-0.5767517552494585 0.6633534447667884 0.4767804737326219
-0.6022755672532719 0.6018845173054254 0.5244036316786564
-0.6273029986567038 0.5316999599752338 0.5690220561969822
-0.650907165552386 0.4523619328375392 0.6096626473321484
-0.6719850680066721 0.3639541468564782 0.6449600354766492
-0.6893422147349231 0.2672390072691824 0.6733428725234512
-0.7018218917547289 0.1637369786618159 0.6932793333660775
-0.7084633376683568 0.05568263089772145 0.7035475419586932
-0.7086558598286755 -0.0541630187203439 0.7034722736068421
-0.7022478954595905 -0.1628210887462396 0.6930636236176766
-0.6895779395213383 -0.2674561523460813 0.6730152092618223
-0.671418084357091 -0.3657009256528435 0.6445623235769422
-0.6488487250098041 -0.4558702412917371 0.6092435105585977
-0.6231013713438719 -0.5370330500302962 0.5686300943535638
-0.595407923392321 -0.6089559126228048 0.524082151235253
-0.5668825788314282 -0.6719602712146332 0.4765643038736593
-0.5384449255109143 -0.7267409814012129 0.4265262103828406
-0.5107781724108785 -0.7741808188502307 0.3738311360935423
-0.4843082105060008 -0.8151729722070957 0.3177083294777205
-0.459186888127706 -0.8504394409650774 0.2567102627917309
-0.4352641582581819 -0.8803105438122889 0.188675538925182
-0.4120388778962098 -0.9044123882490622 0.1107347961738273
-0.3885929427383644 -0.9212040200180613 0.01945965972211948
-0.363551450719292 -0.9273459389180156 -0.08865580777456965
-0.3351949950063766 -0.917023731844242 -0.216129106223882
-0.3021565601295258 -0.8815516057902784 -0.3627232822680028
-0.267725131436111 -0.8092733278795896 -0.5228765961297278
0 0 0
0 0 0
-0.2966884111463266 0.8314930953671843 -0.4696756530289451
-0.3090911022727879 0.898670824349636 -0.3112128531383915
-0.3263293227808247 0.9300857501509808 -0.1686703010594781
-0.3441013978281634 0.9378009259651262 -0.04608309095161775
-0.3617503685568269 0.9304955781426316 0.05757299632648115
-0.3795688418870585 0.9136546978479734 0.1454736655510033
-0.3979659797205384 0.8903018580281254 0.2213270895682195
-0.417265457756668 0.8617563389237167 0.288557706686045
-0.4376713907984673 0.8282306713438921 0.3499681538680062
-0.4592615752925662 0.7892443689554798 0.4076421611313729
-0.4819725321249136 0.7439000560990141 0.4629418805994786
-0.5055730020979488 0.6910831346646817 0.5165269020406429
-0.5296319211530363 0.6296379912606453 0.5683713821587103
-0.5534915149865111 0.5585570100602011 0.6177873496200327
-0.5762597580964469 0.4771974275269161 0.6634812027181459
-0.5968391262801327 0.385513973668717 0.7036775067083805
-0.6140058990384147 0.2842662813770371 0.7363351391982447
-0.6265439158971238 0.1751371352219038 0.759453557051754
-0.6334175173155614 0.06069627796558998 0.7714260888762536
-0.633947132006433 -0.05582535909768061 0.7713589068017771
-0.6279381170465546 -0.1709250394362152 0.7592617151244722
-0.6157213697317772 -0.2812893229117803 0.7360458624783212
-0.5980927109443376 -0.3842022784586503 0.7033304474729033
-0.57617311320989 -0.4778016121854164 0.6631215295909487
-0.5512340152718082 -0.561146488378824 0.6174590504539016
-0.5245333474938831 -0.6341239729196974 0.5681122726498696
-0.4971923696366986 -0.6972559629682727 0.5163660229723006
-0.4701225801785661 -0.7514714047486621 0.4628990035108298
-0.443995016962779 -0.7978882242527251 0.4077288394399566
-0.4192356224585186 -0.837620886998483 0.3501895808354271
-0.3960284641944288 -0.8716018189043392 0.2889147362639174
-0.3743110927986951 -0.9003822457317272 0.2218175317213169
-0.3537526080680987 -0.9238594686467702 0.1460916646380793
-0.333722343904036 -0.9408666137158352 0.05830447988013576
-0.3133085655969371 -0.9485716052254606 -0.04527308785119404
-0.2915982308646399 -0.9416949555065183 -0.1678722208412933
-0.2688628694080341 -0.9116950307664584 -0.3106846123151642
-0.2503891103419782 -0.8462775595311168 -0.4702335437377994
0 0 0
0 0 0
-0.2471207633177683 0.8716695561870503 -0.4232298585330597
-0.2591578571018782 0.9283563186348466 -0.2664427720038903
-0.273656019369008 0.953205090573879 -0.1285007329440242
-0.2881488005416401 0.9575259865976271 -0.0106889539551079
-0.3026117306225514 0.9489493613851526 0.08900140457506682
-0.3174198938726431 0.932167605439849 0.1740924074806743
-0.3329178762921229 0.9096615692015457 0.2483576396306815
-0.3493572493732556 0.882390199623745 0.3151778036574269
-0.366901298694016 0.8503159523218161 0.3772879778679497
-0.3856249141326127 0.8127592317954234 0.4367102663454656
-0.4054971512753735 0.7686329083652513 0.494747928227629
-0.4263489286866172 0.716618022356831 0.5519829716949225
-0.4478329117980986 0.6553331707390905 0.6082631983274065
-0.4693856947188352 0.5835352357688706 0.6626942720512109
-0.4902069779278261 0.5003673847975459 0.7136733139341358
-0.509273905991349 0.4056403670932968 0.7590098690140527
-0.5254081975896239 0.3000962159141778 0.7961711418405049
-0.5374038343916787 0.1855724401105898 0.8226542337170109
-0.5442034253948762 0.06497780038881935 0.8364332114670682
-0.5450858398048012 -0.05797253229945316 0.8363734887854126
-0.5398103536890064 -0.17923500868449 0.8224837954099886
-0.5286680590189567 -0.2950087366050927 0.7959145234884177
-0.5124236087972878 -0.4022340891896316 0.7587026971356771
-0.4921705667350696 -0.4988903477509726 0.7133558397886661
-0.4691495310684675 -0.5840533142593948 0.6624050449693548
-0.4445793394958383 -0.6577561788771861 0.6080345549739148
-0.4195342200011413 -0.7207391429901535 0.551838858734914
-0.3948759928662436 -0.7741712444472171 0.4947037846317178
-0.3712320885894647 -0.8193991983191629 0.4367741867320185
-0.3490009928138612 -0.8577414671660497 0.3774624253071697
-0.3283655337335222 -0.8903147704624497 0.3154610685208143
-0.3092970543089547 -0.9178570950009366 0.2487442167212023
-0.2915386554031851 -0.9404946186714436 0.1745711449689164
-0.274566564130834 -0.9573891640021579 0.08954993306885756
-0.257560780030529 -0.9662091439237597 -0.01011606584499908
-0.239517123189406 -0.9624179661883275 -0.127996898622558
-0.2199709298162475 -0.9384788764145493 -0.266214553620684
-0.2021009255260311 -0.8829096071777491 -0.4238228892529914
0 0 0
-0.07895087226885585 0.8294179066174957 -0.5530214244947813
-0.1653820375266007 0.9073431079396664 -0.3864935525179384
-0.1974281871542053 0.9523619588585061 -0.2324409822647303
-0.2149377275434347 0.9716970274560098 -0.09801357105839079
-0.228103702659352 0.9735001435302993 0.01631475956242977
-0.2400427213179208 0.964145484598259 0.1131502384932291
-0.251916768597736 0.9476332835107639 0.1962883126471927
-0.2642534121318936 0.9260118205129054 0.2695778968072597
-0.2773388092373155 0.8999585541776127 0.3363893364144709
-0.2913468689354609 0.8692389253379891 0.3994254531683737