# OOMMF: rectangular mesh v1.0
# Segment count: 1
# Begin: Segment
# Begin: Header
# Title: 
# Desc: time = 1.34e-09
# Desc: stepsize = 8.850281617163773e-14
# Desc: step = 8574
# meshunit: m
# valueunit: (none)
# valuemultiplier: 384000.0000000001
# xmin: 0
# ymin: 0
# zmin: 0
# xmax: 9.357999999999999e-08
# ymax: 9.357999999999999e-08
# zmax: 2.3395e-08
# ValueRangeMaxMag: 1
# ValueRangeMinMag: 0
# meshtype: rectangular
# xbase: 1.16975e-09
# ybase: 1.16975e-09
# zbase: 1.16975e-09
# xstepsize: 2.3395e-09
# ystepsize: 2.3395e-09
# zstepsize: 2.3395e-09
# xnodes: 40
# ynodes: 40
# znodes: 10
# End: Header
# Begin: Data Text
0 0 0
0 0 0
0 0 0
0 0 0
0 0 0
0 0 0
0 0 0
0 0 0
0 0 0
0 0 0
0 0 0
0 0 0
0 0 0
0 0 0
0 0 0
0 0 0
-0.8334020684151343 0.0243433581649963 -0.5521307755184688
-0.8430680419395378 0.04356052321518928 -0.5360398842226688
-0.8533929153297282 0.02489566585103121 -0.5206733504673161
-0.8587020527173315 -0.009499799818896183 -0.5123870982591593
-0.8572099487614998 -0.04839683252150815 -0.5126878683430995
-0.8490029979530568 -0.08311199225646212 -0.5218106037729429
-0.8361054854484408 -0.1023014473436116 -0.5389452950666039
-0.824713714736369 -0.08319052255604306 -0.5593984498392811
0 0 0
0 0 0
0 0 0
0 0 0
0 0 0
0 0 0
0 0 0
0 0 0
0 0 0
0 0 0
0 0 0
0 0 0
0 0 0
0 0 0
0 0 0
0 0 0
0 0 0
0 0 0
0 0 0
0 0 0
0 0 0
0 0 0
0 0 0
0 0 0
0 0 0
0 0 0
0 0 0
0 0 0
-0.7794111525512857 0.2342905489615241 -0.58105610223625
-0.8073252723844839 0.2644765484447859 -0.5275206724783882
-0.8443432482013092 0.2476188557649854 -0.4751519562061184
-0.8809981505569294 0.1997146819846911 -0.4289012759540625
-0.9130256204091776 0.1180380688665862 -0.3904500362078134
-0.9261461110472546 0.07773976421238346 -0.3690662678330937
-0.9342965923931962 0.03917522175693067 -0.3543376630316856
-0.937966976532071 -0.003308000678914893 -0.3467088231741347
-0.9366336202550138 -0.04760810482509661 -0.3470604122670122
-0.9303201749949183 -0.09032205999344452 -0.3554522435939383
-0.9195579245615974 -0.1293033381108446 -0.3710712467025161
-0.90361952568436 -0.1700005101428418 -0.3931559224444484
-0.8673030897987152 -0.2512515201671718 -0.4297185404881739
-0.8265821529572549 -0.3001926778208301 -0.4760738394359721
-0.7860295212369957 -0.3184718891711441 -0.5298426630158251
-0.7557298771977727 -0.2894614867673869 -0.5874388482123503
0 0 0
0 0 0
0 0 0
0 0 0
0 0 0
0 0 0
0 0 0
0 0 0
0 0 0
0 0 0
0 0 0
0 0 0
0 0 0
0 0 0
0 0 0
0 0 0
0 0 0
0 0 0
0 0 0
0 0 0
0 0 0
0 0 0
-0.7533258788209104 0.3280090076661215 -0.5700089571125955
-0.7911166329434655 0.3568637451854696 -0.4967723225506768
-0.8464442669873193 0.3199074393429728 -0.4256657528358619
-0.880526353846464 0.299077106149911 -0.3677311854586792
-0.9106883257411609 0.2661940400663672 -0.3158916054470361
-0.9374829959959777 0.2176728568108186 -0.2715587590673916
-0.9586609626940001 0.1568503105247454 -0.2374176461320915
-0.9709338349899815 0.1037404110701875 -0.2156975085220856
-0.9779188711076648 0.05347901555248589 -0.2020264250711938
-0.9807319563889647 0.003018397936057829 -0.1953348893346321
-0.9795030352228179 -0.04785671674219768 -0.195661796608187
-0.974218369437984 -0.09843557357685925 -0.2030000160201711
-0.9646849036490212 -0.1489277855943504 -0.2172637828761187
-0.9496105239034494 -0.2023407021503982 -0.2393702010382651
-0.9251004826593754 -0.2634740817313464 -0.2734419595439105
-0.8949292341652592 -0.3127512276805374 -0.3182582841352271
-0.8615205696935503 -0.3466594911610165 -0.3709575517264542
-0.8242826306971028 -0.3686238944780381 -0.4297377911598037
-0.7652157264980114 -0.4060448875262694 -0.4995722582709123
-0.724595050865863 -0.378671714103856 -0.5758209315389154
0 0 0
0 0 0
0 0 0
0 0 0
0 0 0
0 0 0
0 0 0
0 0 0
0 0 0
0 0 0
0 0 0
0 0 0
0 0 0
0 0 0
0 0 0
0 0 0
0 0 0
0 0 0
0 0 0
-0.7578911198426892 0.4087829904513096 -0.508426511092093
-0.8091799093099342 0.4087681754249375 -0.4220621436813936
-0.8490880611643894 0.399207730253627 -0.34595180660584
-0.8872450804823998 0.3681796647993755 -0.2779206749919823
-0.9168593148449 0.3322449566795624 -0.2213194197153412
-0.9415260053846097 0.2890015949351144 -0.1732248807459812
-0.9622308640315286 0.2372668393243619 -0.1334773810881992
-0.9783689860401062 0.1792746193102003 -0.1032217904613001
-0.9891325575851727 0.1214722475538304 -0.08283282319971623
-0.9954370169972445 0.06456774364682231 -0.07025775168609437
-0.9978986144573341 0.007915644969706299 -0.06430939145137148
-0.9967187146077532 -0.04874872965994827 -0.06461706668682092
-0.9918786862176087 -0.1054141404193398 -0.07116551711946903
-0.9831271651387962 -0.1623458911312261 -0.08428990923569521
-0.9697745006341976 -0.2201887593418824 -0.1051395652415127
-0.9508593055269774 -0.2782622684536236 -0.1357817773038678
-0.9273269113072367 -0.3302493266389457 -0.1760686849496602
-0.8998054136769409 -0.3739459659202904 -0.2247546041566432
-0.8671926510416016 -0.4105887740894006 -0.281768991500487
-0.8256719000714694 -0.4425997100060972 -0.3498162519593502
-0.782389603705362 -0.453593454106967 -0.4267545974035624
-0.7279004686301688 -0.4540313631590115 -0.5138252903818085
0 0 0
0 0 0
0 0 0
0 0 0
0 0 0
0 0 0
0 0 0
0 0 0
0 0 0
0 0 0
0 0 0
0 0 0
0 0 0
0 0 0
0 0 0
0 0 0
-0.653466981972983 0.4982495177682676 -0.5698493849385196
-0.7050138453112142 0.5342103530477625 -0.4664491147125049
-0.7852896469957702 0.499552135954355 -0.3657428519939923
-0.8349879307855458 0.4731415493670597 -0.2809488026402858
-0.8717427965269142 0.4434513461096808 -0.2083636252730938
-0.9025810898959231 0.4050153986234919 -0.1459791185072049
-0.9279566212667103 0.3606569110714637 -0.09393136613326203
-0.9491477519366535 0.3107201078472238 -0.05071054696023245
-0.9667359950432972 0.2552943420976619 -0.01569441877124786
-0.9805999661121677 0.1957114762084817 0.01098747200732559
-0.9904632694553732 0.134574878955779 0.02953157316855064
-0.9964801138712313 0.07309558907672792 0.04104165587185162
-0.9988546838519486 0.01155292026762811 0.04643113804671015
-0.9976839750332354 -0.04999038351884652 0.04612642970705866
-0.9929569917144621 -0.1114689439605996 0.04013834996202483
-0.9845540628815306 -0.1728175917303164 0.02806024326345052
-0.9722529944863011 -0.2337590916663407 0.008988980795785091
-0.9559055976409708 -0.2931099836585631 -0.01819411658571859
-0.935828752140858 -0.348336240928759 -0.05372531919035511
-0.912120650333495 -0.3981788506084618 -0.09741417845121786
-0.8840947556427007 -0.4426532421978365 -0.1497817419341084
-0.8503187291096554 -0.4815433072699817 -0.2123066229509286
-0.8102515012418008 -0.5121125141037397 -0.285014521794512
-0.7565934313418212 -0.5395411314521337 -0.3694072916467127
-0.6713143524389604 -0.5748691852021236 -0.467827382818177
-0.6157037716856681 -0.5408030076968734 -0.5730976988246049
0 0 0
0 0 0
0 0 0
0 0 0
0 0 0
0 0 0
0 0 0
0 0 0
0 0 0
0 0 0
0 0 0
0 0 0
0 0 0
-0.6326581118832386 0.5443660899364933 -0.5508259921205504
-0.6959403618843015 0.5683864620668647 -0.438866542857233
-0.7474321824091297 0.5741337104166887 -0.3342388595933907
-0.7993447205121934 0.5516427071426205 -0.2381981138582832
-0.8400353706238899 0.5192354290311004 -0.1572741089298309
-0.8724060856212807 0.4804984937153882 -0.08960367909967322
-0.8995145769171518 0.4356500586411187 -0.03290216283994912
-0.9225273141536683 0.3856733612491875 0.01412136902613459
-0.9421288988763254 0.3310706127932836 0.05277676805907611
-0.9585754613333636 0.2722180320146509 0.08384764740646353
-0.9717642136633133 0.2099682255907603 0.107645981279327
-0.9814667636325429 0.1456597368227814 0.1245240256070264
-0.9875653347598318 0.08031352871487968 0.135146019867642
-0.990026716310333 0.0145132038993198 0.1401301819893046
-0.988843370056856 -0.05138450405190385 0.1398156723616453
-0.9840124487722931 -0.117076912406174 0.1342106450420062
-0.9755387945626569 -0.1822011709619696 0.1229910305807894
-0.9634622119701356 -0.2461704943764368 0.1055492956114507
-0.9479192644462818 -0.307979708823493 0.08122540886087197
-0.9291563512050828 -0.366334612121867 0.04967320179712093
-0.9072538108954433 -0.420449525170966 0.01061693925779586
-0.8818794478492971 -0.4700457323546263 -0.03668308815000704
-0.8522252364516092 -0.5147476805009547 -0.09352524671918896
-0.8169642222042808 -0.5536951937549516 -0.1612175302218103
-0.7727939110046138 -0.5867340089633487 -0.241935474538128
-0.7166367845038886 -0.6103531252180958 -0.3374918986174779
-0.6606957835002117 -0.6064166839394748 -0.4424250073231528
-0.5933538411460949 -0.583608122475168 -0.5543760263378849
0 0 0
0 0 0
0 0 0
0 0 0
0 0 0
0 0 0
0 0 0
0 0 0
0 0 0
0 0 0
0 0 0
-0.5905186976281459 0.5896894452051654 -0.5509573721851644
-0.6592127885615423 0.6177060069696001 -0.4288097344400976
-0.7126167542736367 0.626279888379046 -0.3161500639576665
-0.7566492762901832 0.6174080860140988 -0.2151490832282319
-0.796205066100236 0.5916913630408106 -0.126328237616242
-0.830052941999621 0.5553060062014008 -0.05145243390183818
-0.8590105038455436 0.5118437183014226 0.01081491185348711
-0.8842537167663892 0.4628021483770322 0.0625262812138169
-0.9064279299435549 0.4090209956015579 0.1053101750798627
-0.9257960338836284 0.350972189100544 0.1404287225723952
-0.9423358024798912 0.2890490747214962 0.1686827429443382
-0.9558198092240463 0.2238668694423141 0.1905049003595574
-0.9659389063901558 0.1563001906835726 0.2062335557421925
-0.9724287405212377 0.08721284175435745 0.2162782116659188
-0.9751153609758207 0.0173177824600872 0.2210206488083393
-0.9739149817680395 -0.0527936914891382 0.220686280558417
-0.9688291011145961 -0.1225678936479134 0.21528419421824
-0.9599480535930836 -0.1914047478237146 0.2046068349625443
-0.9474609941991554 -0.2585822723497611 0.1882893329362588
-0.9316547479170093 -0.3232401352848582 0.1659374750462343
-0.9128561791461106 -0.3845280370875667 0.1372289506202899
-0.891286170941034 -0.4418771858799788 0.1017522190817475
-0.8669251261255805 -0.4949669962981217 0.05872391563716336
-0.8394276100237386 -0.5434279275258846 0.006882958285162379
-0.8080169072850476 -0.5865479355767026 -0.05540935672081305
-0.7713256299400466 -0.622979911783585 -0.1302029266633673
-0.7283432394383174 -0.6493146619024908 -0.2188757533463933
-0.6802615287398377 -0.6595104524545955 -0.3198284159040169
-0.62219914386757 -0.6527106551730061 -0.4322464875439562
-0.5489833340998205 -0.6260487708600927 -0.5537871751722061
0 0 0
0 0 0
0 0 0
0 0 0
0 0 0
0 0 0
0 0 0
0 0 0
0 0 0
-0.547891298844659 0.6130567690031947 -0.5691893556890145
-0.6131272915934292 0.6571494908058674 -0.438439814611874
-0.6659410566035208 0.6758089014615513 -0.3159190368355745
-0.7093180283700995 0.6738933740713785 -0.2067260385433996
-0.7462817376346196 0.6561830003925784 -0.1117472060896628
-0.7793321130485118 0.6258799231620731 -0.03026184650642485
-0.8091175187540239 0.5863939802623451 0.03835284549307415
-0.8361141090408628 0.5401553043631291 0.09563181390718629
-0.8607086569425284 0.4884896558205035 0.1433822304909301
-0.8830432536839828 0.4320896696147068 0.1831205328068316
-0.9030291641392959 0.3713492283317691 0.2159585129863681
-0.9203983311050786 0.3066187182114337 0.2425940513313608
-0.9347628659544558 0.2384002377021995 0.2634078797153685
-0.9456948380309531 0.1673999927664641 0.2786368886981702
-0.9528126101131181 0.09443160168635992 0.2884974915183403
-0.9558398658268977 0.02031845663094654 0.293184773165582
-0.9546334993467408 -0.05413749221290538 0.2928207879606451
-0.9491947385880041 -0.1281414043463687 0.2874180382804644
-0.9396727200235937 -0.2008806339430611 0.2768793061066392
-0.9263584373458229 -0.2715175181339315 0.2610331069128867
-0.909656047160409 -0.3392307629523987 0.2396838862569459
-0.8900162814161566 -0.403320496242692 0.2126113734603692
-0.8678387985845321 -0.463308504811524 0.1794465074629919
-0.8433826081117146 -0.5188901186075676 0.1394948785658664
-0.8166963157021483 -0.569745330080287 0.09163725645304509
-0.7875523092356571 -0.6152901806394113 0.03434172136489205
-0.7554170617773831 -0.654350273157047 -0.0342167034490839
-0.719609747207171 -0.6846885748413342 -0.1156000311685672
-0.6792495101981716 -0.7030851181741455 -0.2104552672127525
-0.6316046377661043 -0.7064219289465105 -0.3194427019918261
-0.573742068958878 -0.6897250222821395 -0.4417006134755619
-0.5037444740431704 -0.6471740465084508 -0.5721951226608336
0 0 0
0 0 0
0 0 0
0 0 0
0 0 0
0 0 0
0 0 0
0 0 0
-0.5815680652004768 0.6687624901873577 -0.46317957344574
-0.6168874299212782 0.7131413525511309 -0.3329854502627151
-0.6557133432669414 0.7238939871153324 -0.2145169151371433
-0.6910146069101345 0.7141988756345143 -0.1114395759110153
-0.7228220744683918 0.6906405116050874 -0.02332235817993787
-0.7522501812230896 0.6568618472775293 0.05149930524754696
-0.7799345649246049 0.615260941616377 0.1146998175987892
-0.8061360196584806 0.5673797547609652 0.1680027728835688
-0.8308712587423382 0.5140828849004098 0.2130064291245553
-0.8539555753562666 0.4558166924814741 0.2509801150951928
-0.8750390017241516 0.3928488569093025 0.2828012041817606
-0.8936472809493924 0.3254649196569224 0.3089775450165757
-0.9092309867574384 0.254111234070816 0.3297370064750105
-0.921229714621291 0.1794510278408232 0.3451566912369599
-0.9291457960931228 0.1023302479849458 0.3552697706670467
-0.9326090128835477 0.02370962228860067 0.3601087098353854
-0.9314208699698817 -0.05539155889854668 0.3597039590932199
-0.9255778211006467 -0.133932200395342 0.3540732449421173
-0.9152754196025712 -0.2108806570529285 0.3432204171553051
-0.9008913660260379 -0.2852571997993169 0.3271438163597031
-0.8829427979747608 -0.356198387109057 0.3058344724281523
-0.8620176623042481 -0.4230317866231783 0.2792304735911189
-0.8386935765837349 -0.4853146711137936 0.2471087910190418
-0.8134641514990019 -0.5427830481470568 0.208956064449439
-0.7866773377331925 -0.5952159925928097 0.1638801039137228
-0.7584766157932612 -0.6422483407645484 0.1105906509610347
-0.7287429841762169 -0.6831402898110623 0.04746585563116932
-0.6970337162329499 -0.716520658207724 -0.02724233462925732
-0.6624470962183725 -0.740192931714805 -0.1152313696494472
-0.6235565572559707 -0.7507075051511589 -0.218209673508768
-0.5802094184332902 -0.7415491406092046 -0.33684106463294
-0.5402785874373522 -0.6990553068410258 -0.4684236607325657
0 0 0
0 0 0
0 0 0
0 0 0
0 0 0
0 0 0
0 0 0
-0.4611682965893751 0.726564296952394 -0.5093408727119068
-0.546193600227574 0.7541918559377317 -0.3645095273208095
-0.5932069249194406 0.7693644438778547 -0.23703142560458
-0.6294077165789927 0.7668870004261785 -0.1254203129008859
-0.6608184135761078 0.7499614448941277 -0.02961174515403057
-0.6897005192124563 0.7222351952777338 0.0518605485914007
-0.7172511575822722 0.686208518522175 0.1211141860167162
-0.7440272390382974 0.6433987145306904 0.1801709235956319
-0.7701523929385117 0.594651240052423 0.2307708698150594
-0.7954592488852364 0.5403712603328563 0.2743054581469629
-0.8195734769243704 0.4807255188930611 0.3117728201865819
-0.8419662572315445 0.4158218267679742 0.3437804969262345
-0.8619979313317405 0.3458618599846011 0.370592957552881
-0.878967308151864 0.2712563822101738 0.3922198953527389
-0.8921754548713439 0.1926820263073617 0.4085297962978943
-0.901001258592302 0.1110724923305962 0.4193562130964039
-0.9049758230681407 0.02756360996168527 0.4245692017422138
-0.9038412077823376 -0.0565811022149293 0.4241104219265404
-0.8975847394651172 -0.1400502240823414 0.418004270568882
-0.8864443634105773 -0.2215662895440978 0.4063554723579794
-0.8708833436894046 -0.2999701244039804 0.3893329245638268
-0.8515357483417345 -0.3743020900102591 0.3671305145449409
-0.8291309496168341 -0.4438633330563222 0.3398929389611066
-0.8044121237164048 -0.5082298557872408 0.3076094096488972
-0.7780627643560036 -0.5672012524953501 0.2700019886786007
-0.7506431592094681 -0.6206926781321526 0.2264408241575809
-0.7225273070701834 -0.6685905382751226 0.1759004908091212
-0.6938257681594782 -0.7105813780517423 0.1169611414273826
-0.6642750411717595 -0.7459547255004418 0.04785621359674538
-0.6330736874333699 -0.7733681207901111 -0.03345827289456407
-0.59867911140514 -0.7905130924535128 -0.1291215405218474
-0.5584700995901656 -0.7938607864449699 -0.2406162912371557
-0.5063062163246934 -0.7799689063423553 -0.3678349092325013
-0.4156353980831933 -0.7527658824223104 -0.5104808930030438
0 0 0
0 0 0
0 0 0
0 0 0
0 0 0
-0.3858587422487714 0.7245015018442963 -0.571148496326091
-0.4603900852056572 0.7811994711335015 -0.4216258480514028
-0.5186330946464303 0.8079582354701872 -0.2796841126581345
-0.5601286294430411 0.8136053648622709 -0.1558917212221053
-0.5930344427140026 0.8036117163744223 -0.05018325478330991
-0.6219246910932422 0.7820837607184062 0.03942930165662512
-0.6490867676599871 0.7518920711134064 0.1155191821538823
-0.6756511865314669 0.7147469459792268 0.1806440625982162
-0.7020856065968643 0.6715036362277084 0.2369782005638445
-0.7284292474449257 0.6224760437333621 0.2862069294145066
-0.7544240787961568 0.567674906806019 0.3295292240687419
-0.7795928966656059 0.5069918989287623 0.367687543831902
-0.8032904547340349 0.4403543335934409 0.4010143466494225
-0.8247478017152221 0.3678595499837699 0.429500192143899
-0.8431255142335997 0.2898818427459536 0.4528883797300804
-0.857584201261316 0.2071351373140263 0.4707912197958768
-0.8673708369215659 0.1206775782802205 0.4828092308131677
-0.8719084349289469 0.03185967187287831 0.4886313972801033
-0.8708720117279959 -0.05777138178740669 0.4881028648094646
-0.8642351167488048 -0.1465941840568384 0.4812564889732799
-0.8522773925012137 -0.2330461558401022 0.4683083764780235
-0.8355508712764316 -0.3157497541542239 0.4496185430570478
-0.814811552773783 -0.3936139410065419 0.4256174325749291
-0.7909303012626311 -0.465892138299546 0.3967036349912612
-0.7648009373157197 -0.5321832410600809 0.3631260445296973
-0.737258681156625 -0.5923747488155034 0.3248719655879264
-0.709011287165824 -0.6465423086145101 0.2815777651784324
-0.6805740976713943 -0.6948225504702623 0.232466171596572
-0.6521936336083696 -0.7372654177194159 0.1763041919970313
-0.6237399930975595 -0.7736559453064878 0.1113772836020902
-0.594545371977189 -0.8032784270498224 0.03549041133698147
-0.5631492883846956 -0.8245940684768045 -0.05392125021437811
-0.5268250337172795 -0.8348926432925764 -0.1594040715437398
-0.4805728299870832 -0.8301040915123943 -0.282801966634937
-0.416181356357391 -0.8045090475813618 -0.4237431662932769
-0.3355445569769742 -0.7487916996637443 -0.5715949971770278
0 0 0
0 0 0
0 0 0
0 0 0
-0.4126674067308754 0.7652572023238493 -0.4940516427596297
-0.4490493520262312 0.8245917517601884 -0.3440975477591857
-0.4878893994425728 0.8481269006609345 -0.2065059182852692
-0.521126815630272 0.8489564950761294 -0.08774799997211409
-0.5499658868772608 0.8350922353174489 0.01258895483406109
-0.576535998331922 0.8112625081736634 0.09725937208922494
-0.6023174582704097 0.7800723093282493 0.1694133161294144
-0.6281260071859113 0.7427621740500439 0.2318664958486596
-0.6542895183316287 0.6997307978229842 0.2868484561216504
-0.680780125531704 0.6508954379378913 0.335966589935186
-0.7072951982008049 0.595939182763864 0.3802499086769398
-0.7333071610358171 0.5344934543964359 0.4202110836007951
-0.7580996608555035 0.4662907179487026 0.4559143237118718
-0.7808065407144071 0.3913014423333822 0.487056800799881
-0.8004669709167906 0.3098507521877136 0.5130742050035308
-0.8161049068773772 0.2226960191379706 0.5332722231944649
-0.8268305439739012 0.1310448019620581 0.5469721303965558
-0.8319504480215762 0.03650098995883448 0.5536480197460505
-0.8310644554540293 -0.05905701010989483 0.5530317716350269
-0.8241272163495768 -0.1536476103566721 0.5451667112944276
-0.8114588286155887 -0.2453762177600468 0.5304008684189629
-0.7937019335582586 -0.332609528126537 0.5093212566399749
-0.7717358403341521 -0.414102316301753 0.4826417557332376
-0.7465683418039302 -0.4890569797432965 0.451064276551019
-0.7192274101837213 -0.5571114158027339 0.4151370891918591
-0.6906685376213011 -0.618267191804149 0.375130178309696
-0.6617014990200718 -0.6727788809229086 0.3309376128195586
-0.6329297387553103 -0.7210230900208237 0.2820029245521347
-0.604688554339794 -0.7633518927465183 0.2272567712759244
-0.5769654631742361 -0.7999164907845213 0.165058965449064
-0.5492853973996318 -0.8304258568622325 0.09315819050493925
-0.52054719018138 -0.8537882569527369 0.008731270461779832
-0.4888391457803311 -0.8675768524924906 -0.09136024612477171
-0.4515285155643107 -0.867230199716847 -0.2098422748908506
-0.4071499403189718 -0.8448058372394547 -0.3471772219838176
-0.3648015885888506 -0.7869337425255156 -0.4976495612756389
0 0 0
0 0 0
0 0 0
-0.2961485082321954 0.7572299492756787 -0.582150208272571
-0.3749204283262806 0.8245321059374907 -0.4237705495924939
-0.4167390230094393 0.8662510149693681 -0.2755680782777222
-0.4488064176683916 0.8820285172253367 -0.1435217553576401
-0.4763384521610642 0.8787350928762138 -0.03043543232209086
-0.5015179850650722 0.8627060103232619 0.06494651960181892
-0.5257909827226803 0.8380416382153638 0.1457053708853129
-0.5500940276461597 0.8069076201257558 0.2151665711280785
-0.5749482913937758 0.7701597641712312 0.2762035479046039
-0.6005458325053668 0.7278539428007448 0.331018641483898
-0.6268074574853186 0.6795990215888174 0.3811267257701982
-0.6534141152382591 0.6247990857428832 0.4274062428910693
-0.6798233797354282 0.5628373998905176 0.4701640497204999
-0.7052846819907653 0.4932380583389244 0.5092050030736464
-0.7288668697591861 0.4158205962147573 0.5439175653819689
-0.7495113768392112 0.3308409579541362 0.5733907537871349
-0.7661186960663817 0.2390957481466655 0.5965696663053968
-0.7776662433331971 0.141958408662839 0.6124402209113528
-0.7833415112030425 0.04132298871892353 0.6202164843258106
-0.7826635643494013 -0.0605499195551004 0.6194928992989028
-0.7755622139253814 -0.1612625799866617 0.6103258413562432
-0.7623932457804606 -0.2585388438595986 0.5932235708432998
-0.7438853382118846 -0.350455566924988 0.5690478883228323
-0.7210342496690808 -0.4356003812485724 0.5388524089769323
-0.6949719065069411 -0.5131328763452289 0.5036950470073919
-0.6668393689871542 -0.5827539472173641 0.464460001476333
-0.6376829956335603 -0.6446073444109787 0.4217128983221095
-0.6083798569971719 -0.6991443000528809 0.3755944585635776
-0.5795862767972285 -0.7469743791334683 0.3257438021919914
-0.5516967712889708 -0.7887092412499523 0.2712349632998091
-0.5247979017975108 -0.8247848956401701 0.2105161233558214
-0.4986024917040439 -0.8552266617144373 0.1413609293945739
-0.4723546669208633 -0.8793030793606991 0.06088647850608408
-0.444718075298291 -0.8950164153045216 -0.03422644939848272
-0.4137081296263639 -0.8984575584487035 -0.1470360471022314
-0.376636267557425 -0.8834277790039834 -0.2787480605215043
-0.3282935877698285 -0.8428933924496261 -0.4263262239107204
-0.2428212255820137 -0.7761802501040457 -0.5818780557430131
0 0 0
0 0 0
-0.3244524771083946 0.7876743514513211 -0.523736294487948
-0.3525032386519673 0.86191914959926 -0.3644678947369192
-0.3797631868957962 0.8990076631171281 -0.2180943454916434
-0.4041007480524456 0.9102063847641342 -0.09070238452244825
-0.4266034854195883 0.9042723650392296 0.01734808503023811
-0.4483750946027792 0.8872332300197313 0.1085217493809537
-0.4702399629776489 0.8626526700517685 0.1862921041572438
-0.4927429137168421 0.8322603518184266 0.2540612677542657
-0.5161879854791644 0.7965746952331482 0.3146723987914712
-0.5406690325756794 0.7553710658350615 0.3702587610211016
-0.5660806074657055 0.7080020309849943 0.4222391146878507
-0.5921126568875489 0.6536231242064787 0.4713591126265929
-0.6182389297259919 0.5913755997805227 0.5177407901213564
-0.6437106360365211 0.520561598141441 0.5609387128678904
-0.6675695301641972 0.4408251207518123 0.6000201124216608
-0.6886941986355719 0.352329455693977 0.6336909778559994
-0.705889723511931 0.2558993015068071 0.6604810714385213
-0.7180191551762682 0.1530836207639981 0.6789800423088603
-0.7241595817294532 0.04609862723925744 0.6880899772239666
-0.7237492468358405 -0.06236349137717252 0.6872392761242636
-0.7166866643155141 -0.1694340262183257 0.6765000635267885
-0.7033517879148787 -0.2724086213757367 0.6565742954434887
-0.6845434832805338 -0.3690470832723753 0.6286529009129803
-0.6613531619658096 -0.457766156296648 0.5941903241447286
-0.6350109451095333 -0.5376996821913899 0.5546531811523081
-0.6067403426309727 -0.6086405198726664 0.5112952906033651
-0.5776455351700727 -0.6709039877466046 0.4649876072797892
-0.5486382211542077 -0.7251561667306683 0.4161065201859126
-0.5203977890508886 -0.7722382146533907 0.3644643754606061
-0.4933507148395737 -0.8129964587188099 0.3092601336705969
-0.4676533849691037 -0.8481054273037724 0.2490331217023638
-0.4431634620990692 -0.8778492696875889 0.1816227011398434
-0.4193901434558259 -0.9018093112739121 0.1041723268040677
-0.3954281579341418 -0.9184009123533724 0.01327916041412117
-0.3699186933636976 -0.9242434192227269 -0.09452122684125885
-0.3411640342918222 -0.9134895912600073 -0.2216841635420817
-0.307829400168703 -0.8774396690369292 -0.3678867863788265
-0.2732526696624708 -0.804446861798963 -0.5274449971931973
0 0 0
0 0 0
-0.3056071332121164 0.8283999276594428 -0.469422879697721
-0.3181394088587188 0.8954748322970222 -0.3113071493776591
-0.3357063434693773 0.9266860555525156 -0.1689798964342795
-0.353979379802253 0.9340929244535553 -0.04657260096469003
-0.3722811910059928 0.9263745785550173 0.05689336543194662
-0.390883679824249 0.9090165139780736 0.1445646089546262
-0.4101733914614263 0.8850440579156719 0.2201245204087712
-0.4304490925135641 0.8557806059415408 0.2869723562445997
-0.4518869790379973 0.8214471145824537 0.3478833081941028
-0.4745328705227673 0.7815787221728244 0.4049114172755776
-0.4982860951449533 0.7353045832042313 0.459388873726874
-0.5228725808157543 0.6815513132293778 0.5119492862250932
-0.5478136480697973 0.6192220670739221 0.5625515430937498
-0.5724019952595261 0.5473857192112129 0.6105119411006928
-0.5956991538783818 0.4654893653427994 0.654570216876186
-0.6165712014537131 0.373580314117889 0.6930207085228429
-0.633775344602812 0.2724967051616939 0.7239298020178525
-0.6460991943654278 0.1639654539100169 0.7454335389318261
-0.6525346092402594 0.05054846401617205 0.7560710525666665
-0.6524483390811793 -0.06459052107480795 0.7550756448313605
-0.6457008169489316 -0.1780667417710631 0.7425380060754595
-0.6326753715184974 -0.2867121815475084 0.7193872387151438
-0.6142087981595854 -0.3879538151849088 0.6871967618861652
-0.5914480934483344 -0.4800440933710072 0.6478787086916327
-0.5656772108760635 -0.5621145394968519 0.6033544046261028
-0.5381576000092975 -0.6340807190307394 0.5552729412691499
-0.5100099591258109 -0.6964569003714057 0.5048144486021986
-0.4821450068261682 -0.7501400960037539 0.4525770970343863
-0.4552348727432926 -0.7962034411244284 0.3985238900994721
-0.4297092555215447 -0.8357123553439668 0.3419573289820802
-0.4057585403013204 -0.8695509905637308 0.2814979250050978
-0.3833288520212478 -0.8982249998533117 0.2150600865957923
-0.3620997746037715 -0.9215886674782644 0.1398502098944943
-0.3414530049715293 -0.9384337161216999 0.05245956387475079
-0.320491557992198 -0.9458880589289741 -0.05080296478858803
-0.298321708646479 -0.938635677248156 -0.1731104374298105
-0.2752448793725296 -0.9081071941742869 -0.3155654928348548
-0.2566020208777598 -0.8419965693208938 -0.4745494496185765
0 0 0
0 0 0
-0.2562112256181195 0.8693122085253059 -0.4226725588160597
-0.268435866521516 0.9258147763156198 -0.2660999540031919
-0.2833391454424144 0.9503991803046402 -0.1282978048768942
-0.2984209114957734 0.9543753349760301 -0.01061506342050456
-0.3136374880749788 0.9453691333870935 0.08893102784153936
-0.3293460462911176 0.9280676566886458 0.1738436262876914
-0.3458721373845162 0.904947329642124 0.2478765724199336
-0.3634463321818466 0.8769648834134537 0.3143872721392993
-0.3822078850437458 0.8440845827782435 0.3760829027308539
-0.4022028913107087 0.8056355171765599 0.4349531557362954
-0.4233649766829438 0.7605499593226507 0.4922660417828598
-0.4454813533308886 0.7075436124178719 0.5485694125278473
-0.4681523371760563 0.6452890990285771 0.6036848249471596
-0.4907550890433516 0.5726187032449004 0.6567094207274478
-0.5124273217891517 0.4887696888404214 0.7060612092126533
-0.5320890594230704 0.3936559677753061 0.749610706885353
-0.5485194110846028 0.28811409955439 0.7849310296461485
-0.5604934233324081 0.1740441591305905 0.8096639754080965
-0.5669639374404311 0.05436288634716842 0.8219468171542776
-0.5672477723840919 -0.06727334396812665 0.820794896375843
-0.5611613666258043 -0.1869403299832536 0.8063195604922474
-0.5490594724699237 -0.3009918450983772 0.7797035365286751
-0.5317651363951389 -0.4065238500472297 0.7429429312251622
-0.5104177607463207 -0.5016419207217681 0.698447630742124
-0.4862896469538837 -0.5855020542321968 0.6486214024801713
-0.4606195644924382 -0.6581696007829937 0.5955185919952043
-0.4344939931949499 -0.7203777545412022 0.5406208104019689
-0.4087829859435037 -0.7732627608284907 0.4847279372173764
-0.3841208016678941 -0.8181255594834479 0.4279273053287308
-0.3609127247670743 -0.8562352479816199 0.3695987083514489
-0.3393490775327361 -0.888660978089206 0.308421577713389
-0.3194096470219714 -0.9160969827583291 0.2423711937718358
-0.3008471230112032 -0.9386293167902848 0.1687187429946199
-0.2831485444163878 -0.955382197292132 0.08409375061285955
-0.2655062782703042 -0.9639882271465761 -0.01526807525041327
-0.246931278577204 -0.9598778154293299 -0.132889138408087
-0.2269816984654155 -0.9354869778600644 -0.2708199084557813
-0.2088864756104091 -0.8793104787714457 -0.4279947689280699
0 0 0
-0.08822457279089845 0.8284627400693565 -0.5530514560803872
-0.1746164642612586 0.9058828248269671 -0.3858567066832069
-0.206884712277358 0.9505350309980082 -0.2316934843096149
-0.2248497285371322 0.9695243722721053 -0.09728869999726233
-0.2386716239480093 0.9709519390778443 0.01697609857987062
-0.2514459583474591 0.9611667236036443 0.1137253686200344
-0.2643176693994158 0.94415303965857 0.1967516387396633
-0.2777980901706333 0.9219473286798784 0.2698913563595253
-0.2921564183121752 0.8952181552131973 0.3364952924123612
-0.3075471013109682 0.8637258345318185 0.3992398567747635