# OOMMF: rectangular mesh v1.0
# Segment count: 1
# Begin: Segment
# Begin: Header
# Title: 
# Desc: time = 2.26e-09
# Desc: stepsize = 8.921971331283393e-14
# Desc: step = 14462
# meshunit: m
# valueunit: (none)
# valuemultiplier: 384000.0000000001
# xmin: 0
# ymin: 0
# zmin: 0
# xmax: 9.357999999999999e-08
# ymax: 9.357999999999999e-08
# zmax: 2.3395e-08
# ValueRangeMaxMag: 1
# ValueRangeMinMag: 0
# meshtype: rectangular
# xbase: 1.16975e-09
# ybase: 1.16975e-09
# zbase: 1.16975e-09
# xstepsize: 2.3395e-09
# ystepsize: 2.3395e-09
# zstepsize: 2.3395e-09
# xnodes: 40
# ynodes: 40
# znodes: 10
# End: Header
# Begin: Data Text
0 0 0
0 0 0
0 0 0
0 0 0
0 0 0
0 0 0
0 0 0
0 0 0
0 0 0
0 0 0
0 0 0
0 0 0
0 0 0
0 0 0
0 0 0
0 0 0
-0.835849940493727 0.02888531594671517 -0.5481975150429732
-0.8456514842006498 0.04755326368826743 -0.5316128801880476
-0.8561411489129288 0.02840133536162795 -0.515960945506272
-0.861627773409148 -0.006461105973503922 -0.5074995903442606
-0.8603172509745891 -0.04583176547376508 -0.5076944720489706
-0.8522866762696717 -0.08105092675737896 -0.5167573596234166
-0.8395440190129296 -0.1008082845592427 -0.5338572186491813
-0.828248277172933 -0.08240461523604235 -0.5542691320539757
0 0 0
0 0 0
0 0 0
0 0 0
0 0 0
0 0 0
0 0 0
0 0 0
0 0 0
0 0 0
0 0 0
0 0 0
0 0 0
0 0 0
0 0 0
0 0 0
0 0 0
0 0 0
0 0 0
0 0 0
0 0 0
0 0 0
0 0 0
0 0 0
0 0 0
0 0 0
0 0 0
0 0 0
-0.7802570455868777 0.2398037412655781 -0.5776617595851988
-0.8082716350598733 0.2695469255576827 -0.523489654988558
-0.8454167530607128 0.2523292215197794 -0.4707445991315281
-0.8822238129779448 0.2041409842959176 -0.4242730280672454
-0.9144702563582383 0.1222680931579438 -0.3857391134324044
-0.9277656626938363 0.08160485391993474 -0.3641311891928131
-0.9360807756202337 0.0426308643599417 -0.3491924840516261
-0.9399182662566322 -0.0002807316884563578 -0.3413994346024101
-0.9387544866369875 -0.04502802095909417 -0.3416320991175049
-0.9326078889982 -0.08821408755384257 -0.3499439957126903
-0.9220034363293571 -0.1276957566760533 -0.3655180667542803
-0.9062203726510244 -0.168899537647202 -0.3876049307926812
-0.8701669291952649 -0.2505056951907328 -0.4243305456974431
-0.82967513266766 -0.2999053446039482 -0.470846002967942
-0.7893019383128191 -0.3187466524938685 -0.5247885495126383
-0.7591055666462252 -0.2904336293039512 -0.5825865134519059
0 0 0
0 0 0
0 0 0
0 0 0
0 0 0
0 0 0
0 0 0
0 0 0
0 0 0
0 0 0
0 0 0
0 0 0
0 0 0
0 0 0
0 0 0
0 0 0
0 0 0
0 0 0
0 0 0
0 0 0
0 0 0
0 0 0
-0.7530733178725129 0.3337430526306083 -0.5670063074863341
-0.7909493908687019 0.3622443891894102 -0.4931308787585906
-0.8464303459494389 0.3251007470441197 -0.4217406474686399
-0.8806213957513362 0.3039953301817223 -0.363445727134979
-0.9108992768201772 0.2708341383924363 -0.311305921835265
-0.9378368876325796 0.2220580186545484 -0.2667437132283574
-0.9591981414190854 0.1609936234492713 -0.2324219841298269
-0.9716552258397863 0.1075759996477652 -0.210507782274236
-0.9788175697044691 0.05695487594099422 -0.196652758293348
-0.981802924400359 0.006097930751617292 -0.1898047230167119
-0.9807412896752824 -0.0452023185365967 -0.1900086132915535
-0.9756171034338421 -0.09623053768256107 -0.1972585894319538
-0.9662378039736543 -0.1471888694903285 -0.2114709031293152
-0.9513237034557599 -0.2010663102647366 -0.2335712955817585
-0.9270167781822333 -0.2626322197877271 -0.2677017185189559
-0.8970504598515359 -0.3123752739741087 -0.3126054393156779
-0.8638276551402583 -0.346800269361161 -0.3654194239307874
-0.8267555536628421 -0.3693188652050429 -0.4243569609318385
-0.7679014084507092 -0.4072357048231686 -0.494455769120549
-0.7274010451557961 -0.3805388384622075 -0.5710323212639444
0 0 0
0 0 0
0 0 0
0 0 0
0 0 0
0 0 0
0 0 0
0 0 0
0 0 0
0 0 0
0 0 0
0 0 0
0 0 0
0 0 0
0 0 0
0 0 0
0 0 0
0 0 0
0 0 0
-0.7567885721310074 0.4143981346778928 -0.5055148297205465
-0.8081756429268033 0.4141829845601965 -0.4186939042793141
-0.8481544489393524 0.4044144985411349 -0.3421738507164233
-0.886412472491654 0.3732167595937321 -0.2738287402183823
-0.9161376863743596 0.3370943278036024 -0.2169312189779809
-0.9409331731241125 0.2936484545284468 -0.1685685286986953
-0.9617933252605676 0.2417018215834546 -0.1285839372840135
-0.9781154162421613 0.1834774485134054 -0.09811349752421351
-0.989073951245361 0.1253931543688011 -0.07751951886673922
-0.995571036049631 0.06815337370672904 -0.06475669719383752
-0.9982168206529338 0.01112001333131842 -0.05864745748162503
-0.997209521013197 -0.04596232432683209 -0.05882717010960665
-0.9925291306317747 -0.1030726902105419 -0.06528357664906585
-0.983926652221378 -0.1604651384914806 -0.07835357284349442
-0.9707218278585387 -0.218771311212625 -0.0991879342928645
-0.9519672312772398 -0.2773021706735886 -0.1298533662022727
-0.9285981960790738 -0.3297578207376179 -0.1701915682431602
-0.9012350780037376 -0.3739431107433338 -0.2189563520503459
-0.8687807848132761 -0.4110909627434926 -0.2760872476045493
-0.8274401934370387 -0.4436133095802206 -0.3443108448018428
-0.7843242215514379 -0.455173493167572 -0.4214885604679688
-0.7300038226008818 -0.4561936635596183 -0.5089025057082678
0 0 0
0 0 0
0 0 0
0 0 0
0 0 0
0 0 0
0 0 0
0 0 0
0 0 0
0 0 0
0 0 0
0 0 0
0 0 0
0 0 0
0 0 0
0 0 0
-0.6514823660479439 0.5037600856453588 -0.5672711017134161
-0.7030769268648347 0.5394586130660758 -0.4633219611664497
-0.7834525520183202 0.5047832819715321 -0.3624857748629997
-0.8332219448894638 0.4783093836395066 -0.277419040581237
-0.870047270267963 0.4485353830156786 -0.2045330234515779
-0.9009807705916936 0.4100117261492505 -0.1418592099375625
-0.9264774136668562 0.3655464091578937 -0.08952890436580853
-0.9478163446828942 0.315475702254305 -0.04603539984739356
-0.9655800225849628 0.2598835520148058 -0.01075915317251362
-0.979643811653868 0.2000913230949823 0.01616987045028916
-0.989719352408688 0.1386881426096254 0.03494570885271856
-0.9959476584536407 0.0768813295332009 0.04666393457389442
-0.9985231322529701 0.01495577351827199 0.0522291029425829
-0.9975365630076239 -0.04701520855175446 0.0520612680192389
-0.9929741695028967 -0.1089532706841264 0.04616799223773042
-0.984717608823838 -0.1707791981408817 0.03414229568467324
-0.972550480169489 -0.2322026084436054 0.01508350602748945
-0.9563317699262447 -0.2920318651509234 -0.01212169815695226
-0.936378882406525 -0.3477341650712126 -0.04770261025701976
-0.9127915136230051 -0.3980523311966274 -0.09146580938663874
-0.8848911543452584 -0.4430016846556377 -0.1439345419063193
-0.8512582774294724 -0.4823673747157089 -0.2065939517935647
-0.8113514486288127 -0.5134217817106748 -0.2794761186093772
-0.7578905142332812 -0.5413260401405057 -0.364099006728955
-0.6728895651896611 -0.5770720757520869 -0.4628255097183451
-0.6174291747821693 -0.5436496176712328 -0.5685299528905501
0 0 0
0 0 0
0 0 0
0 0 0
0 0 0
0 0 0
0 0 0
0 0 0
0 0 0
0 0 0
0 0 0
0 0 0
0 0 0
-0.6300052499042259 0.5496764402914711 -0.5485883667027673
-0.6933473685924577 0.5735745710160054 -0.4362128356086272
-0.7448542738306482 0.5792089355108093 -0.3312236703206043
-0.796803263886131 0.5566950764179245 -0.2349364819529931
-0.8375405260006743 0.5242952020661316 -0.1537543768383443
-0.8699776788256813 0.4855679730763269 -0.08580548856353322
-0.8971833210602437 0.4407175093439979 -0.02881259045858611
-0.9203272294636847 0.3907110465011262 0.01851131680059889
-0.9400935722604999 0.3360375282223812 0.05747047085838053
-0.9567359021598272 0.2770622177908009 0.08884222527190404
-0.9701452450362421 0.214626802600893 0.1129315683893859
-0.9800819334072033 0.15006071199896 0.1300814611048131
-0.9864147576963018 0.0843831888142865 0.1409446815047591
-0.989098436622314 0.01818439872277228 0.1461287456812825
-0.9881164935607 -0.04816626034496629 0.1459650866395359
-0.9834610461621314 -0.1143498125452855 0.1404581469781774
-0.975136218899018 -0.179985871862531 0.1292843398142657
-0.9631850375670371 -0.2444713707621957 0.1118406557770365
-0.9477493023032492 -0.3067889107860642 0.0874747060721229
-0.9290801695781696 -0.3656376817109461 0.05584912004359438
-0.9072644770644257 -0.4202290196361688 0.01669549977202917
-0.8819802361888515 -0.4702840444677999 -0.03072101058340385
-0.8524319138919859 -0.5154309736801737 -0.0876968844917151
-0.8173026962876349 -0.5548179473725343 -0.155542109778313
-0.7733041818214771 -0.5882990136807186 -0.2364421977560452
-0.7173635932882508 -0.6123821572190128 -0.3322311974278709
-0.6616170947647314 -0.6089938210482001 -0.4374806805336534
-0.5944452339051822 -0.5867618302098707 -0.5498594534025721
0 0 0
0 0 0
0 0 0
0 0 0
0 0 0
0 0 0
0 0 0
0 0 0
0 0 0
0 0 0
0 0 0
-0.5872513557578468 0.594727127619939 -0.5490314096966648
-0.6560042029401926 0.6226784798057151 -0.4265325269093152
-0.7094099272022482 0.6312102658270803 -0.313546097888982
-0.7534264291574482 0.6223324880557363 -0.2122519497140438
-0.7929807825058003 0.5966664089563134 -0.1231692940617323
-0.826850583235621 0.5603676524320891 -0.04802298523271742
-0.8558616190591696 0.5170004837193625 0.01453921783870334
-0.8811968849007165 0.4680388294931341 0.06657104571786181
-0.9035049522886524 0.4143011650865888 0.1096966079592917
-0.9230480903956961 0.3562412653048903 0.1451701887814045
-0.939800024826403 0.2942372559578683 0.1737824805401154
-0.9535253166823953 0.22889197239165 0.1959539114700121
-0.9639025979869884 0.1610721940478562 0.212008325068954
-0.9706528047402679 0.09164151892374275 0.2223397505152863
-0.9735876029351607 0.02132121933589531 0.2273160465453284
-0.9726114372142002 -0.04928185986557659 0.2271525709480674
-0.9677181183908903 -0.1195937685079735 0.2218534964161154
-0.9589950018823145 -0.1889922677685804 0.2112120003419037
-0.9466327164246344 -0.25673430610128 0.1948691773093193
-0.9309228679574456 -0.3219421583505089 0.1724408901348509
-0.9121992409225059 -0.3837534341633843 0.1436170137142951
-0.8906920057259963 -0.4415926845999881 0.1079983881526785
-0.8663933445999833 -0.4951382444450121 0.0648127404201172
-0.8389708805707246 -0.5440255759657939 0.01280758562213592
-0.8076601504521559 -0.5875540773113176 -0.04965166267554688
-0.7711044973806624 -0.6243942223339097 -0.1246182540214219
-0.7282946058305917 -0.6511614141201252 -0.2134848469543942
-0.6804006568130097 -0.6618397774514755 -0.3146792894224307
-0.6225311781961819 -0.6555660564629663 -0.4274202589808627
-0.5494920660801869 -0.6294597344880645 -0.5493986821727389
0 0 0
0 0 0
0 0 0
0 0 0
0 0 0
0 0 0
0 0 0
0 0 0
0 0 0
-0.5440753621363625 0.6178175539097299 -0.567700158884233
-0.6093733455618914 0.6618632719109877 -0.4365788989564073
-0.6621755781624062 0.68050923486417 -0.3137366490384317
-0.7055061016588946 0.678630871808045 -0.2042578770846349
-0.7424161942973353 0.6610107484877361 -0.1090091043387821
-0.7754277039745554 0.6308480226142414 -0.02725157376097774
-0.8052025187035777 0.5915348297111422 0.04165872192018947
-0.8322270756611055 0.5454758332159193 0.0992683731807997
-0.8568958887999649 0.4939702952327489 0.1473865095094805
-0.8793552620284724 0.4376857267984641 0.1875247389005945
-0.8995165274212961 0.376993339895538 0.2207850506042919
-0.9171072209800134 0.3122241448872199 0.2478516261309585
-0.9317303096587537 0.2438652014669339 0.2690880777304971
-0.9429441540697632 0.1726141775933394 0.2847115522760416
-0.9503503977344973 0.09928500370285848 0.2949179709098882
-0.9536555455524965 0.02471126642798679 0.2998840671801264
-0.9527015409758955 -0.05028612447952088 0.2997183336183883
-0.9474789127000333 -0.1248871461881274 0.2944264096607971
-0.9381314742619067 -0.1982512329903764 0.2839115806320279
-0.9249503241094881 -0.2695136158621692 0.2680099042846206
-0.9083443834863059 -0.3378299053237812 0.2465389138813733
-0.888772721129125 -0.4024832717083112 0.2192949296534318
-0.8666460925735493 -0.4629857671606796 0.1859266781116565
-0.8422364183989435 -0.5190305941369165 0.1457568450275957
-0.8156056351818098 -0.5703033650104332 0.09768070289188449
-0.7865382451112437 -0.616233285039666 0.04017620423268121
-0.754510024963883 -0.655665964166009 -0.02857911235951887
-0.7188432187352113 -0.6863892825587005 -0.1101552525617951
-0.6786510138027886 -0.7052074934388416 -0.2052198641997231
-0.6311940358416318 -0.7090174225627208 -0.3144652343590116
-0.5735205885478075 -0.6928509259368698 -0.4370717663498729
-0.5036738716269222 -0.6508744791731792 -0.5680449307945532
0 0 0
0 0 0
0 0 0
0 0 0
0 0 0
0 0 0
0 0 0
0 0 0
-0.5773779179618557 0.6732464880304703 -0.4619241346851989
-0.6126567634895342 0.7175704708780102 -0.3312767868028771
-0.6514025777560346 0.7283661373742043 -0.2125028273208951
-0.6866029448574263 0.7187910146748494 -0.1091598522159565
-0.718307638130653 0.6954153376126915 -0.02077607316574891
-0.7476485935543247 0.6618680008681489 0.05433534745485358
-0.7752764401835329 0.6205274894268268 0.1178646518765805
-0.8014648126234941 0.5729107382255394 0.1715442804416816
-0.8262405655393035 0.5198546247212299 0.2169739546886686
-0.849425444650258 0.4617772516100215 0.2554176655523373
-0.8706711979829612 0.3989192888796863 0.287741317788461
-0.8894998486345598 0.331542203274183 0.3144356638919873
-0.9053523709943139 0.260073490278187 0.3357065146664494
-0.9176532510768491 0.1851654911628638 0.3516052497766552
-0.9258857061642721 0.1076640003520868 0.3621382638563237
-0.9296591114850074 0.02854152888679872 0.3673136501162323
-0.9287563425922247 -0.05115973964472976 0.3671434830338089
-0.9231597369154229 -0.1303676868767195 0.3616356818078938
-0.9130569277857532 -0.2080156888572262 0.3507941273905465
-0.898824373666704 -0.2830897614674297 0.3346265564102323
-0.8809839606192882 -0.3546969827182334 0.313141041037634
-0.8601330363420854 -0.4221431682593546 0.2862975816958614
-0.8368616579982739 -0.4849730287349917 0.2538970790930613
-0.8116772340767249 -0.5429195566349484 0.2154493506717254
-0.784941161844647 -0.5957678702332895 0.1700823836840991
-0.7568085335861485 -0.6431669526079512 0.1165208760874391
-0.7271689213848793 -0.6843978180087522 0.05315060184804418
-0.6955839338012854 -0.7181146728756428 -0.02177860505718454
-0.6611514086127316 -0.7421479923786154 -0.1099780537097784
-0.6224400699204051 -0.7530743945424725 -0.2131837602679176
-0.5792809403894666 -0.7444050364867763 -0.3321065096540802
-0.539501115857386 -0.7025112347666774 -0.4641298428405922
0 0 0
0 0 0
0 0 0
0 0 0
0 0 0
0 0 0
0 0 0
-0.4564831856358098 0.7304424536948843 -0.508012719399799
-0.5415501042397119 0.7581896471110257 -0.3631417679248899
-0.5884830536843997 0.7734670770612224 -0.2354493071313912
-0.6245493679841939 0.7711418049666623 -0.123605839600326
-0.6558008420678971 0.754430938983524 -0.02755383544036631
-0.6845193594909794 0.7269779254567083 0.05418802802021257
-0.7119202173099037 0.6912704708527055 0.1237527386060517
-0.7385774357545491 0.648806982868997 0.1831744260934459
-0.7646303787826528 0.6004084868040661 0.2342008386328871
-0.7899250756359435 0.5464514843009549 0.2782249992125643
-0.8140968443001316 0.4870715904869294 0.3162397727059321
-0.8366213861153314 0.422344982464065 0.348840037957069
-0.8568571569153872 0.3524438377737031 0.3762700544266346
-0.8740939752975493 0.2777548141133264 0.3985122151018686
-0.8876169406489768 0.1989397914334646 0.4154023664561383
-0.8967835785659778 0.1169305667237399 0.4267393300131393
-0.901101095835443 0.03287593062265391 0.432360946744566
-0.9002888307489368 -0.05193350317599602 0.4321839104786065
-0.8943160288091097 -0.1361483951479492 0.4262187878469704
-0.8834096847988288 -0.2184479610245058 0.4145694358341787
-0.8680301182286564 -0.2976303182773055 0.397416541540603
-0.8488158479936434 -0.3726992039793731 0.3749759452924589
-0.8265063136688717 -0.442928955926303 0.3474208592867263
-0.8018581161634791 -0.5078803896480714 0.314771458924851
-0.7755691882854858 -0.5673494861831625 0.2767796862305717
-0.7482132900007916 -0.6212581525812039 0.2328415352070591
-0.7201754820188482 -0.6695080175096839 0.1819513385198677
-0.6915742149997267 -0.7118072201520476 0.1227012081722341
-0.6621504535129746 -0.7474710426298035 0.05332745392831311
-0.6311040413480959 -0.7751846513745334 -0.02822136189915393
-0.5968906445440497 -0.792666351688906 -0.1241032366861878
-0.5568828016300044 -0.79640767210755 -0.2358312215482705
-0.5049308151611689 -0.782965782663349 -0.3633310543829772
-0.4144973321499177 -0.7562107420472902 -0.5062976152944897
0 0 0
0 0 0
0 0 0
0 0 0
0 0 0
-0.3807688485753101 0.7279553351970628 -0.570172003796016
-0.4553541291216543 0.7847266750466092 -0.4205432945157404
-0.5135541764281766 0.8116095710202483 -0.2784816189652475
-0.5549151994031993 0.817430319612822 -0.1545211767007564
-0.5876273219954014 0.8076700262373727 -0.04861336402918194
-0.616291248851343 0.7864382179815814 0.04123137018346008
-0.6432161004039437 0.7566003164814205 0.1175968081257199
-0.669552496042054 0.7198548510327822 0.1830531302338897
-0.6957876596935465 0.6770392929373313 0.2397860055071924
-0.7219796845135905 0.6284436972432133 0.2894889540983152
-0.7478876121946977 0.5740493256123743 0.3333639021995198
-0.7730479769828766 0.5137137955034802 0.3721491120399051
-0.7968240171868541 0.4473278830889594 0.4061640686291112
-0.8184482519885442 0.3749530306364611 0.435376484933935
-0.8370743135074428 0.2969327764890199 0.4594970292750154
-0.8518472317501203 0.2139606090620166 0.4780974289090739
-0.8619910487974801 0.1270895926891422 0.4907338048505802
-0.8669016318032776 0.03768349559651371 0.4970528291202467
-0.8662268923849991 -0.052679018837478 0.4968660703684116
-0.8599178070881293 -0.1423308919332621 0.4901869870306884
-0.848239313200746 -0.2296564627052327 0.4772294801020219
-0.8317381224686251 -0.3132257397523988 0.4583681179891642
-0.8111736844288686 -0.3919029525812757 0.434061435108179
-0.7874269654224972 -0.4649093645997279 0.4047444339740743
-0.7614055992371217 -0.5318261862701513 0.3707053021575296
-0.7339594767501667 -0.5925371833477323 0.3319686323117842
-0.7058095652878533 -0.6471260050814456 0.2882026909928149
-0.6774815723912402 -0.6957461778056739 0.2386545099910908
-0.6492289862949705 -0.7384706022022344 0.1821068176578611
-0.6209256594041495 -0.7751109684955791 0.1168516667034194
-0.5919048499244601 -0.8049800426195133 0.04069127203944697
-0.5607048521789753 -0.8265674700668465 -0.04895187606461757
-0.5245950213041689 -0.8371882985373471 -0.1546473938190343
-0.4785679842559417 -0.8327888142690757 -0.2782723041797564
-0.4143984263287588 -0.8076496280024416 -0.4194949614045027
-0.3339243604522676 -0.75244489032616 -0.5677333956344267
0 0 0
0 0 0
0 0 0
0 0 0
-0.4073423643682613 0.7684292028341312 -0.4935471187460985
-0.4436882784140636 0.8278076032081261 -0.3433297011165525
-0.4824069394991481 0.8514827386621793 -0.2055740510945373
-0.5154421815266658 0.8525317498268238 -0.08665433076451
-0.5440168997592862 0.8389596189019664 0.01386977390448114
-0.5702820540154477 0.8154897003371896 0.09876703656525235
-0.5957393351543208 0.784719699378153 0.1712005781466539
-0.6212257711934706 0.7478788836235526 0.2339993945185884
-0.6470908781300668 0.705349348284534 0.2894057572258044
-0.673328534577547 0.6570253213512752 0.3390374782039677
-0.699657067952033 0.6025597835150595 0.3839292832736887
-0.7255673373850644 0.541547408573205 0.4245920903497773
-0.7503567323864241 0.4736789732368343 0.4610780893467679
-0.7731656016747324 0.3988819395238761 0.4930599869271682
-0.7930302860408562 0.3174424884266523 0.5199357960012485
-0.8089614331172971 0.2300900435115724 0.5409620796374283
-0.8200463082654746 0.1380219735918032 0.5554043455951608
-0.8255618997348747 0.04285454147349533 0.5626820043161503
-0.8250767460632557 -0.05349840703355468 0.5624822517649257
-0.818517906231692 -0.1490011831221598 0.5548216691931588
-0.8061861449797276 -0.2416951777684714 0.5400438321897507
-0.7887152416221102 -0.3298835333870767 0.5187534308638673
-0.7669857968769473 -0.4122673027628211 0.4916995611770484
-0.7420145668322856 -0.4880109772484955 0.4596299258029913
-0.7148427502134989 -0.5567324740941922 0.4231415776736668
-0.6864399214820335 -0.6184299752784126 0.3825501272681543
-0.657628271422235 -0.6733679729834682 0.3377878470080558
-0.6290205142384419 -0.7219423129651913 0.2883270528716919
-0.6009576844596791 -0.7645300825985474 0.2331171685884992
-0.5734297828072024 -0.8013106517058894 0.1705271932929373
-0.5459616162614094 -0.8320227656485206 0.09830580355104006
-0.5174497127285456 -0.855605210704812 0.01362050703606056
-0.4859776273640274 -0.8696614507363309 -0.08668740857131464
-0.4489035450654933 -0.8696580867659763 -0.2053787217561097
-0.4047425356079472 -0.8476749664330754 -0.342973222208868
-0.362543313272982 -0.7903595364348812 -0.4938564054130383
0 0 0
0 0 0
0 0 0
-0.2904955198882644 0.7597420635111294 -0.5817253216567912
-0.3693333729614788 0.8272370632492712 -0.4234048899146278
-0.4110702257729599 0.8691098078904178 -0.2750807359879058
-0.4429506196536738 0.8850848500708621 -0.1428970143966104
-0.4702086716360839 0.8820567001074865 -0.02966113473419661
-0.4950447846434489 0.8663649287193266 0.06589743153171237
-0.5189244137629186 0.8421075790354529 0.1468750425765351
-0.5428047152686182 0.8114445697180377 0.2166119834110343
-0.5672284641352122 0.7752222608342685 0.2779969708140955
-0.5924105416116922 0.7334819005641735 0.3332477332737746
-0.6182958379205339 0.6858107255145536 0.383893091340995
-0.6445898808489363 0.6315828133777536 0.4308213496949694
-0.6707738214818016 0.5701425299048125 0.4743416237359309
-0.6961171354247234 0.5009674739671447 0.5142494762224411
-0.7197021578197846 0.4238266052963595 0.5499089130687999
-0.740474028948097 0.338927599276464 0.580367379253921
-0.7573250010266515 0.2470295878303452 0.6045123866029143
-0.7692119950655042 0.1494885863285365 0.6212616753066631
-0.7752923499253038 0.04820818997896585 0.629760067459228
-0.7750503926254989 -0.05451250406412404 0.6295437044333921
-0.7683831544959063 -0.1562132355187823 0.6206325426012342
-0.7556213481149653 -0.2545420190511213 0.6035269163925502
-0.7374796876660191 -0.3475000565396175 0.5791091615446889
-0.7149511881155696 -0.4336114063549579 0.5484760221659741
-0.6891738294292375 -0.5119917189765252 0.5127415650493941
-0.6612996818981791 -0.5823196923148151 0.4728493488033431
-0.632387370756691 -0.6447364627573829 0.4294194999048558
-0.6033246611360766 -0.6997055644525283 0.382637526046788
-0.5747755203887728 -0.7478586392986727 0.3321754909504204
-0.5471386105862608 -0.7898348090661623 0.2771286978881007
-0.5205014865356046 -0.826100003002271 0.215955985223547
-0.494575366549846 -0.8567104400869648 0.1464323347081636
-0.4686006661761267 -0.8809660846741334 0.06566714028505562
-0.4412351636531488 -0.8969006764486629 -0.02967670705973467
-0.4104853636842962 -0.9006341084900803 -0.1426883626132449
-0.3736487169530551 -0.8859858767581164 -0.2746191226125499
-0.3254967032440039 -0.8459097895229097 -0.4224790221615632
-0.2401687657457313 -0.7796439968814856 -0.5783374465542013
0 0 0
0 0 0
-0.3186837058460687 0.7899150001391491 -0.5239036058125424
-0.3467135028131767 0.8642733076822557 -0.3644466992510562
-0.3738285662825139 0.901529868714233 -0.2179359971350697
-0.3979114846153751 0.9129573754938241 -0.09041726020299526
-0.4200653115522155 0.9073199001173369 0.01776887395433394
-0.4414098853970855 0.8906479368898602 0.1091034627661597
-0.4627872111690051 0.8665048891990442 0.1870755841165976
-0.4847612497275065 0.836617442460972 0.2551034804401686
-0.5076568320551865 0.8014975760183076 0.3160477440268616
-0.5315907853094413 0.7609089611081737 0.3720601965802985
-0.5564830671516919 0.7141850259354185 0.4245778429252641
-0.582051271273453 0.660452495500207 0.4743614853637527
-0.6077977258769015 0.5988128445954733 0.5215410832967466
-0.6330008182788928 0.5285177992943543 0.565666774600828
-0.6567244549404513 0.4491536189588823 0.6057838037281169
-0.6778602793656762 0.3608252678727311 0.640554890483914
-0.6952135418542633 0.2643088312466464 0.6684451906831864
-0.7076328183679141 0.161126086553496 0.6879637916348775
-0.7141673234256554 0.05349750912612228 0.6979276829789278
-0.7142189336976765 -0.05584515388911305 0.6976909298069272
-0.7076484318464795 -0.1639630901080442 0.687277092581616
-0.694803959538047 -0.2680643514381507 0.6673746783466503
-0.6764632300504899 -0.365820436444176 0.6391970796784431
-0.6537084031377874 -0.4555741998609285 0.6042495114504588
-0.6277701404169713 -0.5364091658371452 0.5640654728014768
-0.5998785419068582 -0.6080937636614315 0.5199689505689509
-0.5711464515688185 -0.6709415129377261 0.4728945094597544
-0.5424933970540962 -0.7256332968143144 0.4232696926394511
-0.5146040750424807 -0.7730352059402321 0.3709436834973947
-0.4879072896344597 -0.8140234389788975 0.3151385687511512
-0.4625589288454565 -0.8493039905049339 0.2544051278133722
-0.4384138410407332 -0.8791925677918405 0.1865843849937601
-0.4149764652132979 -0.9033018964047299 0.1088127624440007
-0.3913349527121053 -0.9200786329262294 0.01767099370195142
-0.3661215031348799 -0.9261721659476576 -0.09033362588803806
-0.337625220779624 -0.9157597229982499 -0.2177001149004706
-0.3044902625979402 -0.8801523336553231 -0.3641669253846727
-0.2700205082767145 -0.8076948483790836 -0.524135437660795
0 0 0
0 0 0
-0.2997417373371174 0.8302489751434194 -0.4699377939381208
-0.3121947378156615 0.8974562569255089 -0.3116194996874629
-0.3295532566368037 0.928858470561608 -0.1691643955033885
-0.3475043479635953 0.9365173052510071 -0.0466483130647582
-0.3653834889514334 0.9291144512798691 0.05693191042451004
-0.3834762393570152 0.9121384994220358 0.1447388397104145
-0.4021843359164812 0.8886171297366267 0.220470761512854
-0.4218233717232361 0.8598743158672201 0.2875433949509538
-0.4425885175495233 0.8261284272558034 0.3487509509853234
-0.4645474277029575 0.7869069013217558 0.4061689501509897
-0.4876249924557438 0.7413234410838329 0.4611522768372289
-0.5115766849413468 0.6882786818086464 0.5143556664334256
-0.5359568202272579 0.6266368677673634 0.5657530581504567
-0.5600924346612848 0.5554144044385885 0.6146635697496002
-0.5830771968242893 0.4739946989947588 0.6598105848411318
-0.6038020521038199 0.382357044398167 0.6994470476557275
-0.6210365638862992 0.2812786545094141 0.7315708474465559
-0.633564108608768 0.1724471793778626 0.7542270815924046
-0.6403550599560405 0.05842023290429039 0.7658540811251865
-0.6407409689743243 -0.05760085449225102 0.7655933334607907
-0.6345407691944994 -0.1721560309910072 0.753472171499038
-0.6220984335250831 -0.2819791397830365 0.7303980447214079
-0.6042202638326646 -0.3843967052270881 0.6979663643647478
-0.5820343977334207 -0.4775768653753018 0.6581461065093331
-0.5568166890325157 -0.5605942139666126 0.6129349900943997
-0.5298279012769594 -0.633337216182606 0.5640623774251557
-0.5021917165350754 -0.6963187191498612 0.5127803830150393
-0.4748223933916081 -0.7504524754917498 0.4597442514726737
-0.4483943874286863 -0.7968388609042967 0.4049571620248187
-0.4233377097738209 -0.8365749837668854 0.3477462868513348
-0.3998410380180581 -0.8705774290248831 0.2867439352263018
-0.3778469584743095 -0.8993834096962458 0.2198662282727104
-0.3570299959552763 -0.9228777793418397 0.144312807419333
-0.3367653219557206 -0.9398823243191889 0.0566598125695657
-0.3161476141527203 -0.9475545125510126 -0.04680952691231434
-0.2942713567012818 -0.940605595148158 -0.1693088391111509
-0.271418318760808 -0.9104866515949371 -0.3120034511163223
-0.2528919349828276 -0.8448985602465507 -0.471372561901885
0 0 0
0 0 0
-0.250259889623219 0.8706912476242289 -0.4233990304149708
-0.2623674839561417 0.9273784567333933 -0.2667067703477227
-0.2770119983614188 0.9521914923818385 -0.1288243556143783
-0.2917140618572773 0.9564415508665198 -0.01106643080555201
-0.3064424060405373 0.947760422189556 0.08856203425373867
-0.3215661205916893 0.930842268634462 0.1735739064809526
-0.337423516784925 0.908170026557561 0.2477348848727846
-0.3542593210266979 0.8807052745196633 0.314417799907936
-0.3722290502943113 0.8484142374386568 0.3763493268605333
-0.3913984228394197 0.8106231105410203 0.4355427042846829
-0.4117253095131804 0.7662537118053773 0.4932925284765187
-0.4330269539872897 0.7140003103698138 0.5501738033678982
-0.4549396509943752 0.6524998530155222 0.6060312333269939
-0.4768813565336649 0.5805326234568102 0.6599742759327549
-0.4980320535720345 0.4972687244419834 0.7104138859190917
-0.5173502132721914 0.402545780941954 0.755185838766227
-0.5336426341251579 0.2971271302968509 0.7917960643281327
-0.5456948748794821 0.1828594410111399 0.8177894156586762
-0.552449331321635 0.06264309855869164 0.8311892555400627
-0.5531928060212535 -0.0598343284025777 0.8309016623589963
-0.5476985766172007 -0.1805720830097094 0.8169577663557809
-0.5362746087274268 -0.2958182981948353 0.7905068491084413
-0.5197021767825464 -0.4025580034717836 0.7535626724356068
-0.4990892363485004 -0.4988026936792885 0.7085942470408265
-0.4756879022226306 -0.5836444790794528 0.6580882476682792
-0.4507260254894543 -0.6571180947694091 0.6041869408329685
-0.4252850647788137 -0.7199544375259381 0.5484507467063834
-0.4002329745206951 -0.7733071412692689 0.4917414273459854
-0.3762026588818402 -0.8185054158958348 0.4341894098195162
-0.3535976911584356 -0.8568507911108004 0.3752004725213156
-0.3326057623255408 -0.8894449088679801 0.3134663633576587
-0.31320301495339 -0.9170128259582041 0.2469642655370496
-0.2951374232290227 -0.93966962155036 0.1729592545807682
-0.2778902977586469 -0.9565673600260077 0.08806740682274976
-0.2606470547429639 -0.9653656931525361 -0.01149744919280665
-0.242409603596698 -0.9615203230329498 -0.1292913472692693
-0.222721409963926 -0.9374880216680638 -0.2674161228732854
-0.204777454245037 -0.8817789896185557 -0.4248905832096071
0 0 0
-0.08214936203845849 0.8288709899585676 -0.5533754280068622
-0.1685899678252059 0.9066871496791038 -0.3866469130298056
-0.2007239115333113 0.9516407677963216 -0.23257205422577
-0.2183985306489058 0.9709100142756384 -0.0981622431980736
-0.2317977213933755 0.9726301947027517 0.0161344572058001
-0.2440315879177845 0.9631698762269805 0.1129264080152515
-0.2562565974647771 0.9465275003911536 0.1960057327198598
-0.2689949888120734 0.9247509577538294 0.2692161996005569
-0.282527333461092 0.8985181746451153 0.3359217106407
-0.2970212125849171 0.8675961601787606 0.3988173794077375