# OOMMF: rectangular mesh v1.0
# Segment count: 1
# Begin: Segment
# Begin: Header
# Title: 
# Desc: time = 4e-11
# Desc: stepsize = 5.866467059084617e-14
# Desc: step = 254
# meshunit: m
# valueunit: (none)
# valuemultiplier: 384000.0000000001
# xmin: 0
# ymin: 0
# zmin: 0
# xmax: 9.357999999999999e-08
# ymax: 9.357999999999999e-08
# zmax: 2.3395e-08
# ValueRangeMaxMag: 1
# ValueRangeMinMag: 0
# meshtype: rectangular
# xbase: 1.16975e-09
# ybase: 1.16975e-09
# zbase: 1.16975e-09
# xstepsize: 2.3395e-09
# ystepsize: 2.3395e-09
# zstepsize: 2.3395e-09
# xnodes: 40
# ynodes: 40
# znodes: 10
# End: Header
# Begin: Data Text
0 0 0
0 0 0
0 0 0
0 0 0
0 0 0
0 0 0
0 0 0
0 0 0
0 0 0
0 0 0
0 0 0
0 0 0
0 0 0
0 0 0
0 0 0
0 0 0
-0.8976103931443437 0.1226101460255273 -0.4233938287349673
-0.9103394620396208 0.1241160123038212 -0.394812967546927
-0.9240770819083303 0.09002614771870189 -0.3714523380175644
-0.9328735140928401 0.04095995667869127 -0.3578676971353442
-0.934815890997505 -0.01270606863156572 -0.3549053476047809
-0.9298325249392911 -0.06300596980132683 -0.362548925435473
-0.9196260230178417 -0.09960271870250578 -0.3799569399490644
-0.9096041775904612 -0.101906126988138 -0.4027845346984629
0 0 0
0 0 0
0 0 0
0 0 0
0 0 0
0 0 0
0 0 0
0 0 0
0 0 0
0 0 0
0 0 0
0 0 0
0 0 0
0 0 0
0 0 0
0 0 0
0 0 0
0 0 0
0 0 0
0 0 0
0 0 0
0 0 0
0 0 0
0 0 0
0 0 0
0 0 0
0 0 0
0 0 0
-0.7993437099244087 0.3619741034986766 -0.4796085714419743
-0.8298957217434795 0.3792799540222224 -0.4091696561437195
-0.8701016144349049 0.3519565559636511 -0.3450358869334852
-0.9103034237901858 0.295375803379745 -0.2900013989856515
-0.9470847996732532 0.2070496778292232 -0.2452770130662232
-0.9640433630325442 0.1547645422720876 -0.2160285412815003
-0.9754894714748154 0.1029668902979035 -0.1944687906687454
-0.9822566990839506 0.0468317492638912 -0.1816000120197812
-0.9839042772719494 -0.01150243195777484 -0.1783257334907647
-0.9803960993964017 -0.06874938102259287 -0.1846537594995845
-0.9721349835426849 -0.1227263162641876 -0.1997293795831893
-0.9584947987275648 -0.1779461502660092 -0.2227619546011192
-0.9269676768032165 -0.2682365458358356 -0.262259569205981
-0.8907651822264782 -0.3297400827900424 -0.3127440933649175
-0.8537024527284188 -0.3639682346462131 -0.3724503273914526
-0.8251845627319484 -0.3552523475267171 -0.4391653526926265
0 0 0
0 0 0
0 0 0
0 0 0
0 0 0
0 0 0
0 0 0
0 0 0
0 0 0
0 0 0
0 0 0
0 0 0
0 0 0
0 0 0
0 0 0
0 0 0
0 0 0
0 0 0
0 0 0
0 0 0
0 0 0
0 0 0
-0.7422192144801039 0.4617332468627308 -0.4857088082361053
-0.7824410631092054 0.4810864870643399 -0.3954007773444919
-0.8418445788404003 0.4390044187929368 -0.3139630955340198
-0.8786968326660354 0.4101725269774889 -0.2442342612648311
-0.9115090812375908 0.3689173683864898 -0.1817998078222013
-0.9412955872147069 0.3122539781647022 -0.1282968067039747
-0.9661526881761505 0.24318271254623 -0.08608804474870395
-0.9820982746987003 0.1796267564101121 -0.05672043031763849
-0.9924182504743424 0.1173942468330165 -0.03639514989601557
-0.9982407661833064 0.05403659304590159 -0.02440121598929755
-0.9997280523738517 -0.01032778675466998 -0.02090832651205755
-0.9968659055656792 -0.07473790388343203 -0.02593476515853559
-0.9895043093713041 -0.1390376739516949 -0.03936682559872015
-0.9766779608031149 -0.2055504407277822 -0.06204173754887097
-0.9554994737928744 -0.2782495762629328 -0.09796902005755487
-0.9290601871119484 -0.3400076913461949 -0.1457461441992258
-0.8991681909255573 -0.3877779918165121 -0.2027924887425886
-0.8650871649109467 -0.424287475454824 -0.2675898639308142
-0.8103292238503862 -0.4736877614521269 -0.3449441311640233
-0.7722479949589185 -0.464847519771846 -0.4330702225319728
0 0 0
0 0 0
0 0 0
0 0 0
0 0 0
0 0 0
0 0 0
0 0 0
0 0 0
0 0 0
0 0 0
0 0 0
0 0 0
0 0 0
0 0 0
0 0 0
0 0 0
0 0 0
0 0 0
-0.723105850666648 0.5392139633861532 -0.4317015524885902
-0.7773633514931122 0.5343102187235085 -0.3319921835270102
-0.8192795505511938 0.519329418583906 -0.2430596080016902
-0.8598914701711412 0.4834980638386362 -0.1637567763214785
-0.8919531750758195 0.4417904340970764 -0.09612879803930095
-0.9192210531772818 0.3919449629545722 -0.03757394589588708
-0.942884050079953 0.3329082702686733 0.01190595193775359
-0.9624379040627238 0.2666368839782803 0.05116691241128207
-0.9767698183729631 0.1988926385570398 0.07976490608950032
-0.9864550360000605 0.1304879108397803 0.099395005280891
-0.9919420265289765 0.06116525545903662 0.1109496621455763
-0.9933668095866521 -0.008918907103528514 0.1146422029957287
-0.9907111148369352 -0.07932686035618519 0.1104478889095963
-0.9838282084494088 -0.149862505943707 0.09809834642591247
-0.9723241255089862 -0.2207132442281275 0.07662544470004309
-0.9556919025538411 -0.2910268722500142 0.04423061181345813
-0.9347900309411831 -0.3551986832701421 0.00122207043103519
-0.9100648583911934 -0.4112873443839061 -0.05123157103828355
-0.8805087394915927 -0.4603187177614715 -0.1131858549349727
-0.8428251915450397 -0.5044723319034696 -0.1874923007511036
-0.8034114359297857 -0.5292736301696374 -0.2727626972741936
-0.7529462100319331 -0.5438363537900127 -0.3705590709926447
0 0 0
0 0 0
0 0 0
0 0 0
0 0 0
0 0 0
0 0 0
0 0 0
0 0 0
0 0 0
0 0 0
0 0 0
0 0 0
0 0 0
0 0 0
0 0 0
-0.5935544546536256 0.6229255901017093 -0.5095653231503039
-0.6470618707448303 0.6539993008864554 -0.3919130641714145
-0.7308811816097732 0.6203188224718049 -0.2846353050060627
-0.7827166755058741 0.5927859221798192 -0.1896297876137945
-0.8211277334603386 0.560852570352904 -0.1057999984443627
-0.8538455309371449 0.5195379596472336 -0.03206427582612514
-0.8814303352439059 0.4712719335151133 0.0313580738047113
-0.9052112525587327 0.4162198251388005 0.08575339878090067
-0.9258162390320587 0.3543522116263337 0.131524908895841
-0.94309395210213 0.2867763401487397 0.16832447308481
-0.9565494244020449 0.2158337450488298 0.1960331430506397
-0.966037506769555 0.1428092104503703 0.2153533489988092
-0.9715269204015969 0.06832679568231367 0.2268631568297852
-0.9729780913318102 -0.007069101124951903 0.2307892146474613
-0.9703488450541067 -0.08277331103012911 0.2270940287265833
-0.963612068459696 -0.1581821503454575 0.2154766549557343
-0.9527710853298751 -0.2325745504514105 0.1952852719527395
-0.9379587969427455 -0.3045729419386881 0.1657365930521356
-0.9196097147398339 -0.3717845136841262 0.126863107090984
-0.8979013816738923 -0.4330501564526108 0.07899791633001273
-0.8723517142110584 -0.4883963499044021 0.02171386914126601
-0.8418387862326095 -0.5377299258987145 -0.04641104165356522
-0.8058110599953624 -0.578723203752008 -0.1254909918207729
-0.7573373594240924 -0.6159644268589081 -0.2168592835571474
-0.6795355160723618 -0.6591956263780286 -0.3220133670522802
-0.628191055018541 -0.6417264316795329 -0.4399581631002493
0 0 0
0 0 0
0 0 0
0 0 0
0 0 0
0 0 0
0 0 0
0 0 0
0 0 0
0 0 0
0 0 0
0 0 0
0 0 0
-0.5553215390629095 0.6619684232231661 -0.5034042062877863
-0.6210056815659796 0.6851974759493447 -0.3806000031731735
-0.6735034979635988 0.6900268014423733 -0.2650585813023293
-0.7266455880388704 0.6682507957413018 -0.1594586572587409
-0.7682922195515985 0.6364767679421116 -0.06800286204595593
-0.8016312950751057 0.5977154141394301 0.01111532529158856
-0.8300631347681139 0.5519198656676813 0.07987273740332229
-0.8549153814184394 0.4997102122955811 0.139317602411428
-0.8769210676371039 0.4412839872960539 0.1904675397286829
-0.8963215405600264 0.3767721812581633 0.2337742914823317
-0.9129171621728136 0.306811656854473 0.2691632631481297
-0.9262638824998751 0.2326193153873883 0.2965189270265212
-0.9359532632701961 0.1553399399043775 0.3160078987056725
-0.9416802884901195 0.07593526974861706 0.3278293291903109
-0.9432469262444283 -0.004677573220929552 0.3320592664558543
-0.9405749033917811 -0.08554443833625967 0.3286350562238831
-0.9337235581549718 -0.1656537536825759 0.3173628063231269
-0.9229048419776773 -0.2438794378370053 0.2979420622444306
-0.9084854510053043 -0.3188820906704692 0.270126632454704
-0.8909160380326727 -0.3892571885546726 0.2339817393188556
-0.8704837369303603 -0.4542184855584853 0.1895880563661922
-0.8471155150366643 -0.5135737854523935 0.1365183909964716
-0.8202850565926246 -0.567182612566843 0.07373133616505544
-0.7888551967386606 -0.6145791041275683 5.786331956526117e-05
-0.7497564715668282 -0.6560163366223641 -0.08664755869747234
-0.6999248286257849 -0.6888716855595584 -0.188576337612909
-0.6498502126632112 -0.697342508320032 -0.3023377700379243
-0.587608527692782 -0.6880628179252478 -0.4257766747621192
0 0 0
0 0 0
0 0 0
0 0 0
0 0 0
0 0 0
0 0 0
0 0 0
0 0 0
0 0 0
0 0 0
-0.4974225818199942 0.6979140794559129 -0.5152540274396082
-0.5686626799030209 0.7271907281606249 -0.3844689862170076
-0.6227690528666328 0.7371693313516196 -0.262183301730302
-0.6665686329257942 0.729977245861271 -0.1510611734504628
-0.705729976906933 0.706584801608055 -0.05179882075341723
-0.7392111573390859 0.6725930871740982 0.03442969577304438
-0.768084768029054 0.6309883051936965 0.1090850486113473
-0.7937794648311531 0.5827584110202931 0.1740884706046627
-0.8171037497681745 0.5282657544634753 0.2308175790010874
-0.8383819307176776 0.467561614603031 0.2801818602192247
-0.8575616396175266 0.400695286323664 0.3225388686259315
-0.8742890715192397 0.328035328336753 0.357786867820807
-0.8880239573034903 0.2503736117647385 0.3856507562379831
-0.8981984496645627 0.1687408740186456 0.4059138608813437
-0.9043323157384646 0.0842890367795142 0.4184237337793916
-0.90610225813901 -0.001732140027648125 0.4230551943733947
-0.9033850101839781 -0.08798446871111457 0.4197073464219036
-0.8962821888500297 -0.1730746680558318 0.4083177650158791
-0.8851181537383638 -0.2555952895944879 0.3888918896813092
-0.8703954745470976 -0.3341997921762106 0.3615552748851962
-0.8526872353455855 -0.4077789526135497 0.3265590367515457
-0.8324785715343844 -0.4757046318669906 0.2840502264677163
-0.8100291800079789 -0.5377828259345238 0.233757052653986
-0.785256807390404 -0.5939705724688822 0.1748448040063463
-0.757582808055796 -0.6440825034448084 0.1059529031908157
-0.7257620058410656 -0.6874885718380699 0.02507936342101028
-0.6886758297946192 -0.7217266536766163 -0.06954307175733226
-0.6468914867024 -0.7416708216864265 -0.1773578210594014
-0.5951312027780338 -0.7462010711587641 -0.2983333921663534
-0.5275608008885079 -0.7321706292075033 -0.4308198824239247
0 0 0
0 0 0
0 0 0
0 0 0
0 0 0
0 0 0
0 0 0
0 0 0
0 0 0
-0.4412151109834084 0.7113803478336689 -0.5470532209538173
-0.5090957017072177 0.7577195331751722 -0.4082678967884127
-0.5623674782529594 0.7791020201803044 -0.2770250197263324
-0.6047727468704251 0.7804799865652881 -0.1584326835405116
-0.6399547946713455 0.7665645432969891 -0.05326032047438212
-0.6709548247689673 0.7404526079407946 0.03936443207922074
-0.6987843307737538 0.7051411043661466 0.1203182529725526
-0.7242387472702045 0.6625040323364795 0.191224067759237
-0.7479780924875848 0.6132848481663631 0.2537921751516277
-0.770339107301467 0.5576031455793096 0.3092836752918553
-0.7913272338226861 0.4953242001072787 0.3584063975414215
-0.8106612450904468 0.4263528787071923 0.401312307967867
-0.8278260231903807 0.350882923667975 0.4377045227171094
-0.8421550675386709 0.2695235110611953 0.4670459497781579
-0.8529462495821276 0.183279257717037 0.4887651880141159
-0.8595832845921245 0.09347717773553305 0.5023729631383577
-0.8616349947154873 0.001693380182403048 0.5075256331902845
-0.8589261699195621 -0.09033725369029617 0.504068462833181
-0.8515715311832436 -0.1808326780635984 0.4920624653665143
-0.8399653123583674 -0.2680985771849427 0.4717853610977335
-0.824717282866928 -0.3506764902545922 0.4436974222635416
-0.8065402369529391 -0.4275016761442619 0.4083321724647015
-0.7861165774007701 -0.498002895695489 0.3660790114368836
-0.7639784437851594 -0.5620388664533681 0.3169372966809341
-0.740403936730348 -0.6196893959267481 0.2603594881123872
-0.7153185567796793 -0.6709818067356357 0.1951993272437637
-0.6882441197870413 -0.7155267308290647 0.1197561232156049
-0.6584051006659842 -0.7519737069012746 0.0322221592412817
-0.6246323406416892 -0.7778901997657975 -0.06871154293720878
-0.5838528447233622 -0.7906031271687531 -0.1845604264717257
-0.5325199463222876 -0.7853959503937769 -0.3155561881408179
-0.4675817639673785 -0.7561925407286458 -0.4577555410385651
0 0 0
0 0 0
0 0 0
0 0 0
0 0 0
0 0 0
0 0 0
0 0 0
-0.4672520660669506 0.760838140045233 -0.450334133070852
-0.5022545390358121 0.8073758482567434 -0.3096524142803138
-0.5393773556284246 0.8221246747777872 -0.1821622555767384
-0.5717925398978934 0.8174419866800654 -0.06958368867531418
-0.5999382653192243 0.7995177640732742 0.02907615409629851
-0.6253737290966224 0.7716928745743882 0.1157488932426611
-0.6491467346927636 0.7359542586255819 0.1923014457787355
-0.671897148661043 0.6933085841953637 0.2605329704704951
-0.6939714263565628 0.644006108485457 0.3219624071752085
-0.7154382357681144 0.5878458363165198 0.3776048245538434
-0.7361012186358631 0.5244631446028495 0.4278941526547045
-0.755521115135656 0.4535889572276929 0.4726995900836687
-0.7730541953455943 0.3752710143319007 0.5114282714720428
-0.7879172456463841 0.2900261981089209 0.5432045824765287
-0.799290032636791 0.1988906075590361 0.567078451320692
-0.8064373650608421 0.103389816920231 0.5822107195774795
-0.8088289201812198 0.005441440658733623 0.5880188505499113
-0.8062309187776291 -0.09279579103143917 0.5842778848919656
-0.7987533579180166 -0.1891216473424952 0.5711620398110794
-0.7868373570696033 -0.2815100895815628 0.5492167540994185
-0.7711825027762378 -0.3683133034667433 0.5192522102997654
-0.7526286445698432 -0.4484079382379794 0.4821622593050229
-0.7320238111823248 -0.5212443552398319 0.4386860631393655
-0.7101056449708446 -0.5867623269043412 0.3891785511899944
-0.687403256732831 -0.64520519327306 0.333447179035256
-0.664155934872713 -0.6968720034063351 0.2706774926767883
-0.6402469084638492 -0.7418243870211838 0.1994504324967175
-0.6151389579004695 -0.7795531418703699 0.1179023387094535
-0.5877413929522288 -0.8086963497982886 0.02388030220698497
-0.5563418744934008 -0.8265826076602675 -0.08511704528894634
-0.5201958947441765 -0.8275432468429674 -0.2111123058845801
-0.4857034014928155 -0.7991658847365964 -0.3541554664995041
0 0 0
0 0 0
0 0 0
0 0 0
0 0 0
0 0 0
0 0 0
-0.3335432247572664 0.8003068443741265 -0.4982548264356813
-0.4215340764973432 0.835163969786465 -0.3532848226601927
-0.4673506535446665 0.8563528245080039 -0.2196433622683291
-0.5001400510101628 0.8601548146568689 -0.09996811590781646
-0.5266843056296527 0.8500446084790307 0.005273120436802673
-0.5497641987115124 0.829597047039763 0.09761180952115124
-0.5710518777674289 0.8010855429241592 0.1793368501345935
-0.5915600709733942 0.7656569669681442 0.2526382618747486
-0.6118475161476327 0.7236434336807942 0.3193474563459708
-0.6321425269511113 0.6748190970998842 0.3808083662541568
-0.6524024527274308 0.6186411663401464 0.4377832191673578
-0.6723369685187491 0.5544870444545248 0.4904152508793987
-0.6914260115311394 0.4818852146552366 0.5382533887258086
-0.7089472709650962 0.4007363279855427 0.5803483112957297
-0.7240350395873412 0.3114893344673536 0.6154247768516001
-0.7357753627379719 0.2152431158230031 0.6421098166813919
-0.7433338573642631 0.1137448230889407 0.6591789527256086
-0.7460891838680936 0.009283223015303155 0.6657813090538736
-0.7437457268216119 -0.095524431154311 0.6616021288412218
-0.7363936419120001 -0.1980150548202108 0.6469269218514014
-0.7245002682840758 -0.2957850154543798 0.6225837982865872
-0.7088309143404997 -0.3869448753142037 0.5897731753337767
-0.6903220939298896 -0.470275067259657 0.5498152123633694
-0.6699406664550379 -0.5452450341189968 0.5038723610184955
-0.6485582455952603 -0.611908273459092 0.452703508869448
-0.6268521920421056 -0.6707071389762276 0.3964949722989305
-0.6052271135055562 -0.7222386405153057 0.3347707980459689
-0.5837423903913377 -0.7669993778885466 0.2663771311107414
-0.5620171595384783 -0.8051189933333264 0.1895260376788131
-0.5390862129082823 -0.8360667926575992 0.1018743013101954
-0.5132026089086774 -0.8582671915166137 0.0007142657144062795
-0.4814737930601455 -0.8687157683572834 -0.1162579046933595
-0.4375028256716744 -0.8638623295405312 -0.2496660832594336
-0.3554468189469626 -0.8457987686138502 -0.3978467065488657
0 0 0
0 0 0
0 0 0
0 0 0
0 0 0
-0.2490092199771828 0.7830991597400513 -0.5698685062194437
-0.326341638100477 0.8466833177656762 -0.4202719294209446
-0.3847290938900709 0.8809620851782048 -0.2754801785845827
-0.4232705673656033 0.8941811444769361 -0.1458838841816189
-0.4508528161591704 0.8920104822263806 -0.03238885239715022
-0.4727096530400838 0.8786941762048118 0.06664929576874884
-0.4916777810843408 0.8570847547235138 0.1538137926471892
-0.5093917965534169 0.828722596472985 0.2318164267241556
-0.5268091707773991 0.7941362523233801 0.3030176732974578
-0.5444494749326331 0.753152588313615 0.3692369807617895
-0.5625160257316538 0.7051444693484175 0.4316792769434313
-0.5809507033604889 0.649246265465463 0.4908926227232407
-0.5994560014906295 0.5845645028433851 0.5467511721910906
-0.6175036304604836 0.5104043261884955 0.5984786463828008
-0.6343563409950869 0.4265016654425957 0.6447389875089116
-0.6491171835087932 0.3332373259017893 0.6838126693031035
-0.6608224392965222 0.2317800395263524 0.713856930343438
-0.6685698606062056 0.1241176496184502 0.7332183512039163
-0.6716656456184467 0.0129357281609093 0.7407414713872188
-0.6697523824327163 -0.09865040410957439 0.7360026114048223
-0.6628853716298775 -0.207474650963265 0.7194006208551603
-0.6515294407206242 -0.3107154164949986 0.6920732026502755
-0.6364777654147347 -0.4062163350116763 0.6556556590942743
-0.6187156939702487 -0.4926528528998185 0.6119510246454225
-0.5992694961170044 -0.5695329314558568 0.5625907135840134
-0.5790727100798037 -0.6370549166242955 0.5087591076783224
-0.5588645476558192 -0.6958884508880039 0.4510096243919302
-0.5391159330999575 -0.7469264845188004 0.3891719894881278
-0.5199628159445233 -0.7910430383185343 0.322319067947931
-0.501120212257221 -0.8288488978759201 0.2487730639702569
-0.4817418894044148 -0.8604199974065444 0.1661390383262938
-0.4601770697859538 -0.884948238922987 0.0714400368863055
-0.4334883351375169 -0.9003372787506941 -0.03847918647136459
-0.3964307508693788 -0.9028966620483484 -0.1661934939373098
-0.3404784466869272 -0.8869474897549466 -0.3120874521012587
-0.2662129971148668 -0.8431198807903481 -0.46720392419498
0 0 0
0 0 0
0 0 0
0 0 0
-0.2729831785844836 0.8174185135997718 -0.5072545296340398
-0.3093598641896332 0.8829869094498766 -0.3530305824836236
-0.3457897192388766 0.9142805368012934 -0.2109989812654009
-0.3739069405685956 0.923455632847165 -0.08615853966655834
-0.3952358225721565 0.9183180598378012 0.02192226109338975
-0.4123969881971124 0.9035958153288628 0.1159453606062683
-0.4273739461428145 0.8818680696760017 0.1991487329717186
-0.4414779146284412 0.8542384355345469 0.2745431589947416
-0.4555335644733481 0.8208202554527002 0.3445914680847003
-0.4700208193020385 0.7810756354826316 0.4110976539437351
-0.485152357229571 0.7340585787799653 0.4751685944947623
-0.5009094748440891 0.6786143048533521 0.5371892806635481
-0.5170485390534142 0.6135840864339953 0.5968043038867002
-0.5331016927606392 0.5380362363406517 0.6529315381876776
-0.5483855567586959 0.4515274047684144 0.7038439343217747
-0.5620424015313973 0.3543566823105982 0.7473551234738709
-0.5731213914381628 0.2477606119416161 0.7811187808818193
-0.580705211652469 0.1339717900206303 0.8030149541810094
-0.5840590941374559 0.01609207639059493 0.8115516124269443
-0.582772354087175 -0.1022405867449694 0.8061781724493265
-0.5768469246642153 -0.2173265891638494 0.7874114420986298
-0.5667056700965787 -0.3259078819864863 0.7567223638425586
-0.5531132160531448 -0.4255537250693525 0.7162190986750803
-0.5370373227350527 -0.5148486835665105 0.6682228273707785
-0.519491608608036 -0.5933634633765306 0.6148562994030743
-0.5013980446251713 -0.6614713248542804 0.5577236656638994
-0.4834868522344299 -0.7200827303455103 0.497716109016573
-0.4662295953124644 -0.7703734621167531 0.4349191802174543
-0.4497878191801584 -0.8135320627817714 0.3685871681749005
-0.4339503193979473 -0.8505264438809572 0.297139510253402
-0.418034328747745 -0.8818433773780093 0.2181732287953023
-0.400726344550642 -0.9071381887625193 0.1285251075538743
-0.3798833165664601 -0.9247097027771337 0.02450778211692851
-0.3525670265149323 -0.9306971199920102 -0.09746467387210557
-0.3167562043139677 -0.9178161484861066 -0.2393303670801856
-0.2801009869243403 -0.8733877428772742 -0.3984184831502554
0 0 0
0 0 0
0 0 0
-0.1491886942171281 0.7884698855109589 -0.5967059352479438
-0.2310188524523014 0.8660174180781043 -0.4434457366994919
-0.2716504211037213 0.9165868145606638 -0.2933848327499315
-0.2993217092751639 0.9411468118618067 -0.1570006142629714
-0.3195850310737212 0.9468008011158876 -0.03786358303068008
-0.3349755737825462 0.9399773319483873 0.06506904327131814
-0.3473637752399508 0.9248535674069742 0.1548686104594516
-0.3581359441970722 0.9036114662749023 0.2349999223203953
-0.368272044192866 0.8770151876479182 0.308577481519462
-0.3784422849194125 0.844884115794386 0.3780902906229042
-0.3890780535406424 0.80641829777907 0.4453176363677185
-0.4004130821609961 0.7604228262038152 0.5112988255634205
-0.4124942055123489 0.7054968065685474 0.5763009511881071
-0.4251770413443134 0.640234034520627 0.6397850143252307
-0.4381125206559383 0.5634705980703957 0.7003986752947853
-0.4507460061714368 0.4745759956392279 0.7560460715350181
-0.4623400241084122 0.3737592102560023 0.8040806892695791
-0.472040920340787 0.262312407305705 0.8416469393381693
-0.4789875357329383 0.1427079849235646 0.866143967046785
-0.4824546287427453 0.01846028649517752 0.875726412201445
-0.4819940563235278 -0.1062650676832159 0.869706539620735
-0.47753559780864 -0.2272355335513659 0.8487188964063249
-0.4694077929593268 -0.3407603512961012 0.8145788524713924
-0.4582729079105807 -0.4441531219847132 0.7698791763039265
-0.4449962623485852 -0.5359299276114816 0.7174659846892675
-0.4304948677814948 -0.6157519400222644 0.6599422074489633
-0.4156041918354951 -0.6841831732452732 0.599305048516023
-0.4009839999058932 -0.7423770760617749 0.5367383988102956
-0.3870614485136567 -0.7917660031660207 0.4725357460605645
-0.3739941633447477 -0.8337979077384861 0.4060904022936082
-0.3616323015875718 -0.8697045591654514 0.3359107890724892
-0.3494572336278562 -0.9002614853386893 0.259632239679402
-0.3364848199147111 -0.9254618016483812 0.1740644123785683
-0.3211406519777156 -0.9440264138496941 0.07538442545654406
-0.301167552627947 -0.9527214831309858 -0.04024774310177835
-0.2735371888866751 -0.9457756659334831 -0.175173616803592
-0.2326970183676597 -0.9157571525654439 -0.3274766177424437
-0.1534822740210725 -0.859463457980992 -0.4876123008668622
0 0 0
0 0 0
-0.1780188244493115 0.812849622291564 -0.5546032723327066
-0.2062198014483216 0.8955689262383958 -0.3942457252105863
-0.2303200062163878 0.9417147818343994 -0.2452059632453338
-0.2482775346153888 0.9620257446975642 -0.1134228034585671
-0.2614255457298294 0.9652235388080941 0.000451852453719884
-0.2711839704297914 0.9574510749805777 0.09872534224032622
-0.27874116420446 0.9424006250637097 0.1848903060127029
-0.2850271855769148 0.9218705158421391 0.2625152481343714
-0.2907495787054675 0.8963430032438319 0.3347146591029746
-0.2964372240278496 0.8654191277306083 0.4039488897975272
-0.3024756570172485 0.8281072930643048 0.4719605789530442
-0.3091212401617928 0.7830242888380702 0.539737919707768
-0.3165018600445456 0.7285683077369663 0.6074658785064684
-0.3246013811084931 0.6631207435492633 0.6744663244796809
-0.3332417485755707 0.5853061268068888 0.7391662025069964
-0.3420667481117164 0.494319435451195 0.7991486942812874
-0.3505484719251806 0.3902774643605153 0.8513514372121814
-0.3580241380497561 0.2745186793982575 0.8924450746321396
-0.3637781094606692 0.1497318607120564 0.9193725343759873
-0.3671576993903163 0.01981772871656464 0.9299475691709325
-0.367704339009942 -0.1105660596118993 0.9233464493542817
-0.3652557940911212 -0.2366888319658605 0.9003147236969417
-0.359987226716218 -0.354469792567656 0.8629949957897836
-0.3523710237268852 -0.4610033109423889 0.8144388306913056
-0.343073491252162 -0.5547704003153839 0.7579778245661021
-0.3328237847491 -0.6355380729180556 0.6966488973485054
-0.3222960163403403 -0.7040635937396784 0.632787273751231
-0.3120253659646103 -0.761723579619428 0.5678180687917702
-0.3023594089971819 -0.8101725617880914 0.5021943925578971
-0.2934313733209756 -0.8510628905905618 0.435419321356555
-0.2851364738431366 -0.8858221644380999 0.3660823463027155
-0.2770954189913317 -0.9154334963083902 0.2918897781879562
-0.2685931256536169 -0.9401512676165237 0.2096981803704153
-0.25849801762262 -0.959064467077981 0.11564654285193
-0.2451982303047432 -0.9694569967299115 0.005564112403768628
-0.2266659954988968 -0.9660386046727175 -0.1240642606332783
-0.2010477122155892 -0.9403618327709379 -0.2744074359060984
-0.1707343527846027 -0.8806413915528118 -0.4419508120403777
0 0 0
0 0 0
-0.1592747553195323 0.8450464019558179 -0.510419563554757
-0.1702843893958584 0.9209968109026813 -0.3503827921504849
-0.1829183098526334 0.9614734800406496 -0.2052063329899391
-0.1930101842358536 0.9780414476254446 -0.07862566697946477
-0.2000808589832654 0.9793146597858564 0.03017361425202569
-0.2046664556408809 0.9709204145230946 0.1241981907988236
-0.2074530294968215 0.9560616879649806 0.207145575280145
-0.2090564148842825 0.936186775056059 0.2825769587313625
-0.2099886884171918 0.9115447978007215 0.3535404253254053
-0.2106731735417998 0.881571046612166 0.4224326025828926
-0.2114587800863154 0.845137044804226 0.4909465956944665
-0.2126295836200541 0.8007232459338753 0.5600276275244646
-0.2144001446905117 0.7465794002049583 0.6298029669240151
-0.2169042795394911 0.6809218492190546 0.6994983693859169
-0.2201721480483759 0.6022080776187708 0.7673784310719631
-0.2241086133734388 0.5094892545822107 0.8307803734303653
-0.2284751059817806 0.4028069687623529 0.8863101442853388
-0.232895113813192 0.2835353389986348 0.930251351786639
-0.2368888450890759 0.1545462482508053 0.9591658523029077
-0.2399484813375651 0.02006367929261717 0.9705782683931464
-0.241636435780351 -0.1148384369074076 0.9635475942121547
-0.2416842993347668 -0.24501900741966 0.9389112766700306
-0.2400538612405374 -0.366083132051335 0.8990869168945752
-0.2369404452368781 -0.4749677603624296 0.8475050749271339
-0.2327143609141789 -0.5701477216009376 0.7878931410905697
-0.2278293192658459 -0.6515005891111096 0.7236302810626003
-0.2227292797361693 -0.7199525301817652 0.657312727880026
-0.2177780811540596 -0.7770660974008139 0.5905429600284164
-0.2132154137738777 -0.824666639994591 0.5238932335975195
-0.2091314735038609 -0.8645574408869025 0.4569512645755489
-0.2054466629702086 -0.8983022568151934 0.3883873376864071
-0.201883323471562 -0.92703249361914 0.3159966447264194
-0.1979224324080752 -0.9512013707734437 0.2367333161774912
-0.1927520185991092 -0.9702061190900036 0.1467880983127776
-0.185260108450216 -0.981797771515062 0.04185484518035802
-0.1742573392549438 -0.9812630064141394 -0.08220274909558195
-0.1595149830701717 -0.9605031369427006 -0.2280102938451545
-0.1452363751850509 -0.9073770667868927 -0.3944277550988535
0 0 0
0 0 0
-0.1094988015813858 0.8756567874582012 -0.4703564637916888
-0.1193651602988872 0.9421508099352524 -0.3132152771580087
-0.1281282340579873 0.9765046342012695 -0.1732681592809997
-0.133648371851417 0.9896625526290969 -0.05202061730818358
-0.1361350139578383 0.9893192576665831 0.05210244125508401
-0.1361984866224568 0.9804005255773102 0.14235442279566
-0.1344209986812807 0.9656344689991653 0.2224434026763363
-0.1312896761218154 0.9461700018684367 0.2958468328512421
-0.127214698790628 0.9220714164054415 0.3655143272974012
-0.1225546329400396 0.8926544358105343 0.433760786808476
-0.1176401626287409 0.8566991709102704 0.5022223837089881
-0.1127861654047747 0.8126013370246306 0.5718027176912236
-0.1082993028329828 0.7585180785072817 0.6425897490495086
-0.1044718328318107 0.6925641515815416 0.7137510294836016
-0.1015677533245908 0.6130911877076761 0.7834559253970738
-0.09979291332771717 0.5190619597915765 0.8488910744888849
-0.09926028951012861 0.4104727793732005 0.9064543520332421
-0.09995252512711914 0.2887318372059302 0.9521782495438551
-0.1017047060951977 0.1568429689523757 0.9823728598899162
-0.1042162642543823 0.0192621736072782 0.9943681103760232
-0.1071050700992587 -0.1186491807384387 0.9871427839320558
-0.1099879034839152 -0.251471038138017 0.9615950176997592
-0.1125685164184932 -0.3746119236334645 0.9203228975652916
-0.1146939597483592 -0.4849223525494138 0.8670038106001514
-0.1163615213535915 -0.5808989387432987 0.8056155530494593
-0.1176791723316332 -0.6625097455307232 0.739751613365025
-0.1188074585278591 -0.7308057980029915 0.6721664030605523
-0.1199028580108994 -0.7874730699655755 0.6045737909633608
-0.121074764691712 -0.8344469466073556 0.5376236552203663
-0.1223532423564634 -0.8736209077658688 0.4709736655049825
-0.1236609079154291 -0.9066421803455682 0.4033707186593557
-0.1247786334974645 -0.9347369726258946 0.3327117139937851
-0.1252974728500452 -0.9585023619349946 0.2560737500456228
-0.124556316950584 -0.9775798874853363 0.1697742250515723
-0.1215913591922868 -0.9901393409128004 0.06956742733878092
-0.1152104617778264 -0.9921407931456486 -0.04881798923821619
-0.1045983869647014 -0.9764631510171643 -0.1886236786567703
-0.09196569161831269 -0.931914761105553 -0.3508235875746453
0 0 0
0.06204446087748051 0.806232266834526 -0.5883366525972046
-0.02737014588121132 0.8992249739553526 -0.4366295012129117
-0.05724814175052594 0.9565231608483115 -0.2859826795924296
-0.06841940429612001 0.9861949848022741 -0.1507920325037302
-0.07175043578813545 0.9968495299367741 -0.03380665066291717
-0.07073361248113613 0.9952695980489292 0.06659717159827792
-0.06679890673249353 0.98584715443369 0.1537637608617156
-0.06069309168938313 0.9709667616724877 0.2313868975297127
-0.05289817881128926 0.9515631313064635 0.3028686015695364
-0.04378268389072756 0.9275731246109971 0.371067615254573
-0.03367387728981294 0.8982367441485277 0.4382200605286368