# OOMMF: rectangular mesh v1.0
# Segment count: 1
# Begin: Segment
# Begin: Header
# Title: 
# Desc: time = 2.4e-09
# Desc: stepsize = 8.899017193486215e-14
# Desc: step = 15358
# meshunit: m
# valueunit: (none)
# valuemultiplier: 384000.0000000001
# xmin: 0
# ymin: 0
# zmin: 0
# xmax: 9.357999999999999e-08
# ymax: 9.357999999999999e-08
# zmax: 2.3395e-08
# ValueRangeMaxMag: 1
# ValueRangeMinMag: 0
# meshtype: rectangular
# xbase: 1.16975e-09
# ybase: 1.16975e-09
# zbase: 1.16975e-09
# xstepsize: 2.3395e-09
# ystepsize: 2.3395e-09
# zstepsize: 2.3395e-09
# xnodes: 40
# ynodes: 40
# znodes: 10
# End: Header
# Begin: Data Text
0 0 0
0 0 0
0 0 0
0 0 0
0 0 0
0 0 0
0 0 0
0 0 0
0 0 0
0 0 0
0 0 0
0 0 0
0 0 0
0 0 0
0 0 0
0 0 0
-0.8360886079854382 0.02946374503285712 -0.5478026353766569
-0.8459095528726277 0.04807708935740551 -0.5311549885275959
-0.8564237589072377 0.02887565183930429 -0.5154653644136064
-0.8619371130774561 -0.006035240586630874 -0.5069792786404207
-0.8606540252379553 -0.04545605816668766 -0.5071571705276887
-0.8526501744606552 -0.08072961629388843 -0.5162077188935236
-0.8399312067595757 -0.1005493033736231 -0.5332967330693875
-0.828650855709666 -0.0822245756464007 -0.5536938490640897
0 0 0
0 0 0
0 0 0
0 0 0
0 0 0
0 0 0
0 0 0
0 0 0
0 0 0
0 0 0
0 0 0
0 0 0
0 0 0
0 0 0
0 0 0
0 0 0
0 0 0
0 0 0
0 0 0
0 0 0
0 0 0
0 0 0
0 0 0
0 0 0
0 0 0
0 0 0
0 0 0
0 0 0
-0.7802937578089278 0.2404640797203567 -0.57733757706273
-0.8083233185534142 0.2701671889911657 -0.5230899565805165
-0.8454886087955081 0.2529171002543162 -0.4702998541313655
-0.8823201140140825 0.204703673789187 -0.4238013949285511
-0.9146001939932887 0.1228141619711968 -0.3852572734767645
-0.9279212809187479 0.08211581845654151 -0.3636194284926506
-0.9362608194977574 0.04310080160161166 -0.3486516868949378
-0.9401232706404629 0.0001450039651868795 -0.3408345859418148
-0.9389848682624269 -0.04464960475381833 -0.3410481343879772
-0.9328632999051494 -0.08788676285199414 -0.3493450738245379
-0.9222827130023317 -0.1274237035770847 -0.36490792957095
-0.9065234287934097 -0.1686845981233032 -0.386989378929989
-0.8705085286699578 -0.2503320252743082 -0.4237319655571525
-0.8300498458587654 -0.2997848523985225 -0.4702619436678193
-0.789702927458072 -0.3186912647977154 -0.5242186224332199
-0.7595223548926531 -0.2904589815080245 -0.5820303879348908
0 0 0
0 0 0
0 0 0
0 0 0
0 0 0
0 0 0
0 0 0
0 0 0
0 0 0
0 0 0
0 0 0
0 0 0
0 0 0
0 0 0
0 0 0
0 0 0
0 0 0
0 0 0
0 0 0
0 0 0
0 0 0
0 0 0
-0.7529831079868639 0.334409889448064 -0.566733151426468
-0.7908725861745258 0.3628824650199343 -0.492784810052697
-0.8463776307930384 0.325727189747012 -0.4213629124076733
-0.8805860485162034 0.3046001035392085 -0.3630247761276378
-0.9108825477065766 0.2714158903392752 -0.3108478707582122
-0.9378425331876856 0.2226183648132689 -0.266256355026449
-0.9592311980332283 0.1615332286555298 -0.2319105964803185
-0.971714955018639 0.1080869325659261 -0.2099696673370046
-0.9789030031012319 0.05743038440470508 -0.196088402172379
-0.9819135873312284 0.006532840204723478 -0.1892168835309821
-0.9808767311571392 -0.04481235339959302 -0.1894008744892017
-0.9757766100001333 -0.0958893726380665 -0.1966347771675324
-0.9664207262508923 -0.1468995556575149 -0.2108352447299123
-0.9515310130232228 -0.2008298541879938 -0.2329293904208478
-0.9272540108848355 -0.2624460392479227 -0.2670619324820786
-0.8973171969324162 -0.3122436589033851 -0.311970744724529
-0.864121036936261 -0.3467294667889558 -0.3647924209525832
-0.8270729504482588 -0.369313834643346 -0.4237424054515182
-0.7682498437384998 -0.4072907158100982 -0.4938688595271701
-0.727767287757876 -0.3806739379936978 -0.5704753524929141
0 0 0
0 0 0
0 0 0
0 0 0
0 0 0
0 0 0
0 0 0
0 0 0
0 0 0
0 0 0
0 0 0
0 0 0
0 0 0
0 0 0
0 0 0
0 0 0
0 0 0
0 0 0
0 0 0
-0.7566064827805153 0.4150427608765813 -0.5052584851919283
-0.8080096322630111 0.4148163762359257 -0.4183871510654787
-0.8480008926424346 0.4050353301131058 -0.3418199342311687
-0.8862754100055986 0.3738285223635009 -0.2734376226617859
-0.9160178466956064 0.3376943670034285 -0.2165036235939191
-0.9408327357276159 0.2942343222586163 -0.1681068915550517
-0.9617156829930286 0.2422716717046371 -0.1280913040557094
-0.978064118775987 0.1840282404747279 -0.09759193752932019
-0.9890501622645221 0.1259184948961088 -0.0769695340223676
-0.9955745330981194 0.06864626696322938 -0.06417974040516135
-0.9982468007362134 0.01157413674239283 -0.05804622449894885
-0.9972648302914431 -0.0455523445129925 -0.05820517307893203
-0.9926084129032845 -0.1027111907787163 -0.06464479810812253
-0.9840287873586587 -0.1601552084509852 -0.07770234781181432
-0.9708467705341645 -0.2185145117782605 -0.09852896165945854
-0.9521164688532291 -0.2770989154726024 -0.1291914114109939
-0.9287716241453664 -0.3296101684461781 -0.1695299591200904
-0.9014316568817474 -0.373854017156597 -0.218298286359059
-0.8690003005761415 -0.4110629911606836 -0.2754372794242039
-0.8276853792492055 -0.4436477918919395 -0.3436765190211639
-0.7845928067776713 -0.4552768981821602 -0.4208765537950124
-0.7302966425400046 -0.456368134884923 -0.5083256233522496
0 0 0
0 0 0
0 0 0
0 0 0
0 0 0
0 0 0
0 0 0
0 0 0
0 0 0
0 0 0
0 0 0
0 0 0
0 0 0
0 0 0
0 0 0
0 0 0
-0.6511975186828466 0.5043734471040515 -0.5670530993810715
-0.7028014599237064 0.540054991488259 -0.4630450454304881
-0.7831958330114752 0.5053884462423275 -0.3621971915382932
-0.8329783191752419 0.4789184365431146 -0.277099712961033
-0.8698157312910711 0.4491457162061357 -0.2041781555707075
-0.9007639702328861 0.410622401883273 -0.1414691238465109
-0.9262781742731089 0.3661547585757983 -0.08910351641531385
-0.9476378747000479 0.3160780950425161 -0.04557517162084675
-0.9654258369717627 0.260475687641104 -0.01026496250674805
-0.9795170809660916 0.2006676249055249 0.01669707790129999
-0.9896217872037908 0.139241274101754 0.03550473036223016
-0.9958794698262631 0.07740332786446015 0.04725258103074526
-0.9984834184677754 0.01543911761628631 0.05284407906411966
-0.9975236637531909 -0.04657698690666095 0.05269843017687324
-0.9929860122454734 -0.1085652588125808 0.04682268749003107
-0.9847521607609849 -0.1704449128024449 0.03480967647562303
-0.9726062476771732 -0.2319240083748532 0.01575884890052171
-0.9564079175061163 -0.291809804151128 -0.01144261914481784
-0.9364744184953039 -0.347569387811586 -0.04702323000561791
-0.9129055845797092 -0.3979456098912631 -0.09078923510774663
-0.8850239626812765 -0.4429536652162664 -0.1432642172749554
-0.8514117001109651 -0.4823787086532748 -0.2059342087953198
-0.8115273440996031 -0.513493968258744 -0.2788320540047928
-0.7580937542160581 -0.5414584172376704 -0.363478530619181
-0.6731313323289507 -0.5772583165573012 -0.4622413280987341
-0.6176919468910641 -0.5439140978980828 -0.5679912964594097
0 0 0
0 0 0
0 0 0
0 0 0
0 0 0
0 0 0
0 0 0
0 0 0
0 0 0
0 0 0
0 0 0
0 0 0
0 0 0
-0.6296510151678769 0.5502568181982588 -0.5484131956147569
-0.6930044675523538 0.5741541289759905 -0.4359952340706253
-0.7445174704631101 0.5797882713191229 -0.3309672138082474
-0.7964755482430363 0.5572833974029504 -0.2346527562803797
-0.837222037381733 0.5248954679982072 -0.1534405676388174
-0.8696699333185571 0.4861801051702452 -0.08545824956284173
-0.8968895440728991 0.441339889564235 -0.02842969595572904
-0.9200513059113299 0.3913402494329476 0.01893155209205821
-0.9398396151597057 0.3366685637802105 0.0579290595351406
-0.9565079343028363 0.277688730227624 0.08933946899489729
-0.9699466728389821 0.2152410101854312 0.1134669968887138
-0.9799148727662962 0.1506535523568641 0.1306535468086124
-0.9862797612477816 0.08494513310199864 0.1415505454433221
-0.9889946124729843 0.01870641073416168 0.1467641873784465
-0.9880418100329971 -0.04769197730727994 0.1466248850885831
-0.9834127318614529 -0.1139293274459364 0.1411364841581017
-0.9751112265059676 -0.179623289308013 0.1299752664171022
-0.9631804819055755 -0.2441688630911681 0.1125385514964061
-0.9477626927828102 -0.3065470684538349 0.08817467318587448
-0.929109396611068 -0.3654560801608562 0.05654717148079477
-0.9073081357667321 -0.4201066400547731 0.01738843734744032
-0.8820381775115452 -0.4702196287361479 -0.03003588126474992
-0.8525055898785455 -0.5154234882435796 -0.08702210634461105
-0.817394944469843 -0.5548671178896388 -0.1548805547510316
-0.7734199008150562 -0.5884053716018809 -0.2357981672814282
-0.7175085258074944 -0.6125481524103836 -0.3316116348564699
-0.6617881138998646 -0.6092286676828267 -0.4368946357810623
-0.5946401341114751 -0.5870688357412568 -0.5493207560299278
0 0 0
0 0 0
0 0 0
0 0 0
0 0 0
0 0 0
0 0 0
0 0 0
0 0 0
0 0 0
0 0 0
-0.5868334834794544 0.5952663547837994 -0.5488938235485766
-0.6555977049815153 0.6232237902614195 -0.4263610635073981
-0.7090078134210717 0.6317638914407462 -0.3133405591038529
-0.7530261641066667 0.6228977576417379 -0.2120141025868172
-0.7925836843518212 0.5972489739714015 -0.1229014499076413
-0.8264586400772831 0.5609711260931391 -0.04772328500221332
-0.8554779157638871 0.5176256317094421 0.01487417351236145
-0.8808256510233944 0.4686838772379494 0.06694472134840546
-0.9031511041224646 0.4149619606781094 0.1101120080306949
-0.9227167603257269 0.356911509866798 0.1456295105347708
-0.9394961028831741 0.2949087329536479 0.174286866673888
-0.9532529066599617 0.2295547754479456 0.1965031832143619
-0.9636644412037368 0.1617151788058164 0.2126006719257768
-0.9704499198771805 0.09225314828074985 0.222971544468488
-0.9734192487672523 0.02189056135113752 0.2279819498406169
-0.9724753417166276 -0.04876423869785845 0.2278459101615514
-0.9676108870083727 -0.1191351617647426 0.2225668092374918
-0.9589126235693747 -0.1885974847814645 0.2119376537885689
-0.9465710688141583 -0.2564056570010495 0.1955999763340514
-0.9308781296481349 -0.3216797437862708 0.1731705811631661
-0.9121682113559785 -0.3835556634141031 0.144340594617736
-0.8906724933126358 -0.4414568707636827 0.1087121930226291
-0.8663845690600436 -0.4950612584357712 0.06551434110660485
-0.8389737186682237 -0.5440045681669843 0.01349552509035425
-0.8076771256063114 -0.5875872527260732 -0.04897837488271146
-0.7711396820036704 -0.6244815917657409 -0.1239610115520349
-0.7283524329499994 -0.6513056342417539 -0.2128466683337152
-0.6804829743663824 -0.6620464047531276 -0.3140660432949393
-0.6226391828248063 -0.6558400967090831 -0.4268421436080055
-0.5496248670863408 -0.6298044289955482 -0.5488705555027639
0 0 0
0 0 0
0 0 0
0 0 0
0 0 0
0 0 0
0 0 0
0 0 0
0 0 0
-0.5436022447415121 0.6183144083686293 -0.5676124486969437
-0.6089114545419323 0.6623689668552253 -0.4364564036358832
-0.6617163628546592 0.6810271110795824 -0.3135817741913559
-0.7050449473660464 0.679165742937335 -0.2040723298587687
-0.7419515754699679 0.6615677493338488 -0.1087932566797117
-0.7749607078177267 0.6314322327451741 -0.02700438462715624
-0.8047358292116384 0.5921496849709 0.04194038354521861
-0.831764759496615 0.5461221858395716 0.09958886982663184
-0.8564432005686401 0.4946461707643 0.1477504989770209
-0.8789182575423133 0.4383863267130134 0.1879364922250447
-0.899101566926467 0.3777111711214263 0.2212479232907098
-0.9167204056751482 0.3129492513534073 0.2483675983217876
-0.9313768554582709 0.2445855375068387 0.2696573157901586
-0.9426277699012559 0.1733162620584055 0.2853320183875027
-0.9500728320363573 0.09995490064103285 0.2955852358698858
-0.9534164278678285 0.02533574427956118 0.3005914422160914
-0.9524985373858761 -0.04971849944509216 0.3004573299000948
-0.9473081394734481 -0.1243851595111617 0.2951874336429928
-0.9379880738207339 -0.1978205372402042 0.2846847526933357
-0.9248290957731999 -0.2691566435597322 0.268785871725029
-0.9082403719400539 -0.3375461683893415 0.247309544870121
-0.88868172687675 -0.4022699538180063 0.2200537947198725
-0.8665651124470509 -0.4628385070681296 0.1866692858093532
-0.8421639802203401 -0.5189443641431456 0.1464806381181498
-0.8155419527993604 -0.5702733991402565 0.09838482330737122
-0.7864851666207122 -0.6162560032819521 0.04086099735132054
-0.7544707633617348 -0.6557398389893082 -0.02791291447765321
-0.7188216229014764 -0.6865155007487708 -0.1095077242981129
-0.678650481939356 -0.7053900178378275 -0.2045933676789866
-0.6312174700143228 -0.7092620442678469 -0.3138659875005757
-0.5735690485291095 -0.6931641479555493 -0.4365111803361613
-0.5037439690533017 -0.6512611325979013 -0.5675393826068147
0 0 0
0 0 0
0 0 0
0 0 0
0 0 0
0 0 0
0 0 0
0 0 0
-0.5768745110975184 0.6737148522586963 -0.4618702158529397
-0.6121516261145815 0.7180474490530343 -0.3311770637494435
-0.6508913549394065 0.7288613818299182 -0.2123712083643289
-0.6860826279535653 0.7193120331562652 -0.1089992044784226
-0.7177772665609784 0.6959684142901374 -0.02058547834569462
-0.7471093245967918 0.6624582909120151 0.0545588663963674
-0.7747313159850945 0.6211583594391055 0.1181256980124219
-0.8009185823441425 0.573583048231484 0.1718485124676012
-0.8256994353534827 0.5205662742898334 0.2173273947962867
-0.8488966784866296 0.4625229510087104 0.2558260132288374
-0.870162572154327 0.3996905201425962 0.2882092748852918
-0.8890189876930706 0.3323273799658395 0.3149662712834942
-0.904906000113526 0.2608583928262703 0.3363005052785889
-0.9172464524724376 0.1859340635092765 0.3522605136169194
-0.9255213288740213 0.1083995273229205 0.362849572516535
-0.929337478843416 0.02922803725560137 0.3680727811929967
-0.9284753270602204 -0.0505360926555472 0.3679397646076406
-0.9229151777223945 -0.1298174948567008 0.3624568839996981
-0.9128432983763638 -0.2075456141165135 0.351627545380562
-0.8986355631097583 -0.2827023831270566 0.3354601128132667
-0.8808140415185594 -0.3543911426249793 0.3139642372830105
-0.8599769212479562 -0.421914722563097 0.2871021800777399
-0.8367155962029867 -0.4848158445237291 0.2546774586990829
-0.8115391068692009 -0.5428266197277326 0.2162025414672605
-0.7848105645072613 -0.5957323818948981 0.1708078071975177
-0.7566866546447367 -0.6431833505825441 0.1172198115335818
-0.7270582542477758 -0.6844626535375713 0.05382537359352439
-0.6954878095748867 -0.7182272688389978 -0.02112574327211843
-0.6610734492099409 -0.7423107682096669 -0.1093463220672976
-0.6223837034742887 -0.7532928832821567 -0.21257553397812
-0.5792479180532794 -0.7446878706743677 -0.3315295231218733
-0.5394875766871134 -0.7028708204532071 -0.4636008675096509
0 0 0
0 0 0
0 0 0
0 0 0
0 0 0
0 0 0
0 0 0
-0.4559265951670132 0.7308336907917066 -0.5079498560125653
-0.541004156398494 0.7586083036808652 -0.3630811814814884
-0.5879316115551338 0.7739110542640395 -0.2353680101927733
-0.6239851916372148 0.7716153351870588 -0.1235000207353448
-0.6552202075302279 0.7549400948625588 -0.02742139334452329
-0.683920989373353 0.7275287796768063 0.05435029932346268
-0.7113050854281969 0.6918681922421632 0.1239495058785876
-0.7379486780408488 0.6494550650392762 0.1834117419158122
-0.7639931812002788 0.6011080007623737 0.2344858002074743
-0.7892864502887025 0.5472004444718795 0.2785652041451636
-0.8134652374066706 0.4878644876578443 0.3166426206518278
-0.8360060995860933 0.4231725218344319 0.3493119210950777
-0.856267592524822 0.353292964193861 0.3768154607269454
-0.8735387467602215 0.2786091261322401 0.3991328259419543
-0.8871029568927479 0.1997804508097343 0.4160962813417129
-0.8963152624102986 0.1177376946705933 0.4275006264603727
-0.900679915993535 0.03363034245622899 0.4331797421303942
-0.8999132642886325 -0.05124852707510692 0.4330470011788667
-0.8939819704031582 -0.1355456203245485 0.4271107835268494
-0.8831112076005418 -0.2179352738413372 0.4154742006743782
-0.867760423975943 -0.2972104886970131 0.3983186814468705
-0.8485682178299228 -0.3723703297577978 0.3758620986545692
-0.8262749118618689 -0.4426854251599326 0.348280611545676
-0.801638548004819 -0.507714154751718 0.3155978064205661
-0.7753587833130914 -0.5672514184977341 0.2775690641111689
-0.748011122955214 -0.6212193224273743 0.2335934788861897
-0.7199821965631065 -0.669520791390731 0.182667858496488
-0.6913917188568526 -0.711866140704828 0.123385934426011
-0.6619815583994448 -0.7475734622649831 0.0539845798000466
-0.6309521069192231 -0.7753311054154062 -0.02758832632684971
-0.5967592351132405 -0.7928605926522535 -0.1234928982823575
-0.5567751481252013 -0.7966560224697534 -0.2352458634978119
-0.5048495576226216 -0.7832747658899316 -0.3627775699906419
-0.4144482660838564 -0.7565803754644752 -0.5057853005002401
0 0 0
0 0 0
0 0 0
0 0 0
0 0 0
-0.3801733533077591 0.7282869931398063 -0.5701458384116411
-0.4547691477784804 0.7850816192140027 -0.4205138207017144
-0.5129687000582519 0.8119927880998856 -0.2784435756743564
-0.5543176132095667 0.8178459655620092 -0.154466696409269
-0.5870097925527346 0.8081234945221046 -0.04853783110705198
-0.6156491344441828 0.7869357139394808 0.04133189306924666
-0.6425474091205797 0.757148056389914 0.1177270051322343
-0.6688577130861102 0.7204583043978394 0.1832189708229149
-0.6950697107273612 0.6777024160643228 0.2399948592990306
-0.7212438919868481 0.6291681216156152 0.2897494141742854
-0.7471415424447688 0.5748335552383743 0.333685329802288
-0.7723011042994143 0.5145524889428686 0.3725409244909931
-0.7960871558437014 0.448211331422895 0.4066347780069988
-0.8177327413780604 0.3758669688590069 0.4359325468453389
-0.8363909936482257 0.2978587064255486 0.4601416051072013
-0.8512053217457656 0.2148767657228074 0.478829276239656
-0.8613971201101227 0.1279725849742791 0.4915465582841438
-0.866358900615847 0.03851043793690823 0.4979349370084489
-0.8657350142116937 -0.05192823071723269 0.4978015106671088
-0.8594732346731118 -0.1416716235793631 0.4911567061060297
-0.8478361367820286 -0.2290980842452458 0.4782132923306114
-0.8313691855178007 -0.3127712978331461 0.4593467019836296
-0.8108317300398851 -0.3915497354843425 0.4350180573294259
-0.7871055921543822 -0.4646501539491499 0.4056661450433472
-0.7610999016523726 -0.5316508618244836 0.3715835045128241
-0.7336663311707786 -0.5924343830596061 0.3327990629121316
-0.7055276143767689 -0.6470846035455058 0.2889849497918192
-0.6772109962406824 -0.6957564802895035 0.2393912836881563
-0.6489711739194608 -0.7385252236597687 0.1828029251403944
-0.6206828642944364 -0.7752054421387482 0.1175129969395795
-0.5916798937149609 -0.8051131973382647 0.04132363543068997
-0.5605008655192942 -0.8267415769519537 -0.04834402435790892
-0.5244151449297773 -0.8374088190019047 -0.1540624082186017
-0.4784149808709363 -0.8330634149469273 -0.2777128962709949
-0.4142739133186999 -0.8079861311434747 -0.4189696130072078
-0.3338227120845264 -0.7528494227820409 -0.5672566822112179
0 0 0
0 0 0
0 0 0
0 0 0
-0.406732847826115 0.7687315706394633 -0.4935789326961205
-0.4430775818017814 0.828130652056543 -0.3433393068512396
-0.4817857124092643 0.8518355955096355 -0.2055690772977343
-0.5148005521481415 0.8529214941625596 -0.08663322863356122
-0.5433469271013532 0.8393930062274895 0.0139103524719566
-0.5695783211295832 0.8159735966201055 0.09883129928344542
-0.5949989881302369 0.7852608557654678 0.1712938776678216
-0.620448533839141 0.7484834225266134 0.2341285609653526
-0.6462791162790754 0.706022061340736 0.2895792685288687
-0.6724873159845727 0.6577688111892782 0.3392653841265102
-0.6987941297478744 0.6033734986929412 0.3842228328782003
-0.7246928668363684 0.5424266724211563 0.4249630028633041
-0.7494828767008205 0.4746141518518858 0.4615374571951632
-0.7723056547029339 0.399857968946874 0.4936168355957409
-0.7921975621277008 0.3184390053010871 0.5205954499049922
-0.8081679371785604 0.2310823496239415 0.5417245914750671
-0.8193014169670697 0.1389828996060429 0.556263374466491
-0.8248713408922603 0.04375704873351616 0.5636245130055437
-0.8244421368900388 -0.052678342805883 0.5634892679718148
-0.8179369875371114 -0.1482820020513231 0.5558700678093453
-0.8056536468247588 -0.2410880641566148 0.5411088122357484
-0.7882241470286259 -0.3293919497175791 0.5198111556154277
-0.7665286771290866 -0.4118877195138518 0.492729432500648
-0.7415847067471014 -0.4877344676149919 0.4606161219704922
-0.7144348849907792 -0.5565467344487699 0.4240737288286341
-0.6860505560539913 -0.6183213334995186 0.383423216664544
-0.6572556450110263 -0.6733231083243392 0.3386015488706295
-0.6286643416980866 -0.7219495511581264 0.289084747193432
-0.6006187953257401 -0.7645802867619528 0.2338248228834268
-0.5731097654821061 -0.8013977899465804 0.1711922281465519
-0.5456625129354131 -0.8321442771325375 0.09893595914820913
-0.5171737651531084 -0.8557622410322759 0.01422263902284071
-0.4857269813442647 -0.8698589414166538 -0.08610877790147936
-0.4486797026174944 -0.8699045498718386 -0.204823335026432
-0.4045448988826933 -0.8479816707444046 -0.3424478221123896
-0.3623649150945408 -0.790739442131396 -0.4933789648599282
0 0 0
0 0 0
0 0 0
-0.2898546730532717 0.7599593471113671 -0.5817611702814524
-0.3687041321618351 0.8274912056803152 -0.4234566889878176
-0.4104349407923535 0.8693961797897003 -0.2751244117555756
-0.4422969242227836 0.885406647397935 -0.1429283021889421
-0.4695260920523566 0.8824196779084582 -0.02967761651437067
-0.4943247697131101 0.8667758520665167 0.06589874295040807
-0.5181606585872436 0.8425737053299954 0.1468982061800474
-0.5419933316946224 0.8119732707376744 0.2166624933072763
-0.5663681197181394 0.7758205326428118 0.2780820995619143
-0.5915026356899336 0.7341556794212173 0.3333767693547821
-0.617344694431932 0.6865639770687895 0.3840773797664092
-0.6436028811522538 0.6324164189414315 0.4310740127006182
-0.6697613665678865 0.571053051606508 0.4746768628277677
-0.6950923170843639 0.5019459797310291 0.5146813617784762
-0.7186800358980988 0.4248578211416356 0.5504496687402842
-0.7394704788361566 0.3399897475414681 0.581025285591353
-0.7563552089476511 0.2480952382111983 0.605289641968771
-0.7682888289458796 0.1505267054004918 0.6221527033439955
-0.7744249486347096 0.04918723204760017 0.6307508344311741
-0.7742433399063539 -0.05362098347119556 0.6306124330698176
-0.7676364682987243 -0.1554312681529117 0.6217518583954844
-0.7549312805324144 -0.2538830032168851 0.6046670012091477
-0.7368400721306242 -0.3469681144628333 0.5802411874803804
-0.7143549464932473 -0.4332022810702926 0.5495751032353304
-0.6886142654899013 -0.5116947859931408 0.5137887108055573
-0.6607713454449439 -0.5821204501285271 0.4738322599623619
-0.6318864371285682 -0.6446189533059129 0.4303323548279314
-0.602848919220657 -0.6996543502687685 0.3834800786800695
-0.5743241072936747 -0.7478602184686135 0.3329518184563659
-0.5467116452424725 -0.7898785034788186 0.2778458686004356
-0.5200996987198753 -0.8261784730749413 0.2166227920119501
-0.4941997813763721 -0.8568199834108936 0.1470581249550709
-0.4682523348121509 -0.881106847984979 0.0662606472722967
-0.4409148900033107 -0.8970767763057537 -0.02910871323581099
-0.4101932966844136 -0.9008534182209921 -0.1421428092965886
-0.3733836431502932 -0.8862587665001976 -0.2740986206265223
-0.3252552657106849 -0.8462454491360091 -0.4219924785396837
-0.2399481331078044 -0.7800416039803251 -0.5778927145049332
0 0 0
0 0 0
-0.3180424205457791 0.7901040283904108 -0.5240082471246287
-0.3460720161398513 0.8644913910127437 -0.3645391536032159
-0.3731732648370578 0.9017815217604466 -0.2180178924360651
-0.3972297981876673 0.9132472129428718 -0.090487653764816
-0.4193461897088961 0.9076536100827441 0.01771150135904385
-0.4406440288752792 0.8910322329015309 0.109061449408458
-0.4619673151121622 0.8669472689236007 0.1870524864148283
-0.4838822041145652 0.8371258606536838 0.2551045000897836
-0.5067159372540686 0.8020799833004426 0.3160801469904301
-0.5305880318637464 0.7615726298711192 0.3721336720509751
-0.555421473861244 0.7149356021728897 0.4247046869525818
-0.5809372137527903 0.6612927516844089 0.474556477404752
-0.6066411388068594 0.599741195808475 0.5218208761225794
-0.631815115839525 0.5295267510338101 0.5660486545662522
-0.6555260130428613 0.4502284759589137 0.6062837336262977
-0.6766673710260687 0.3619435473580926 0.6411849479787467
-0.6940447459671155 0.2654408747783416 0.6692107534942562
-0.7065051023821329 0.1622371813822935 0.6888611161076956
-0.7130941915610935 0.05455146182259665 0.6989426385439993
-0.7132091095930232 -0.05488161067746841 0.6987995240431785
-0.7067054491696312 -0.1631160882697508 0.6884479282135463
-0.6939267404206851 -0.2673499948403568 0.6685728525658093
-0.6756474110030709 -0.3652438864348533 0.6403885378633905
-0.652947949764987 -0.4551307441062731 0.6054048072711097
-0.6270588076849303 -0.5360866683529094 0.5651622207110372
-0.5992108855792067 -0.6078756874367659 0.520992766961943
-0.57051832397157 -0.670809776040165 0.4738386712601807
-0.5419020052957467 -0.725570535965846 0.4241339576061822
-0.5140477684781344 -0.7730263019938278 0.3717327375257621
-0.4873852214367034 -0.8140564032931489 0.3158604409901896
-0.462070708450195 -0.849370399599663 0.2550697643317278
-0.4379592232017068 -0.8792877671964833 0.1872024072259218
-0.414555090158121 -0.903425126794251 0.1093943211541763
-0.3909460940338402 -0.9202331326557418 0.01822451980939427
-0.3657637410734177 -0.926365104371662 -0.08980300172297664
-0.3372958645901639 -0.916001566425768 -0.217192610454206
-0.3041842847100564 -0.8804551024540536 -0.3636904363576977
-0.2697287062568058 -0.8080693618910796 -0.5237082502634196
0 0 0
0 0 0
-0.2991000325453915 0.8303978433627239 -0.4700836013624407
-0.3115456856419143 0.8976362873548888 -0.3117505114376568
-0.3288829354624295 0.9290740166020867 -0.1692852221444039
-0.3468000165849291 0.9367728090097037 -0.04675952092099864
-0.364633617685691 0.9294151734885151 0.05683097872426514
-0.3826707585164281 0.9124908493400957 0.144649716373906
-0.4013148592992844 0.8890286269945251 0.220396197993124
-0.4208834051969997 0.860353348794678 0.2874878683484934
-0.441573716863284 0.8266838395437605 0.3487212095825685
-0.463455959963352 0.7875473513551421 0.4061745222782289
-0.4864580075549012 0.7420564441219756 0.4612058549311406
-0.5103388485768816 0.6891092746862558 0.5144731938348237
-0.5346567919971753 0.6275659020567017 0.5659533137521567
-0.5587431181526187 0.5564366245290429 0.6149669997648759
-0.5816955466239446 0.475096941656655 0.6602372202976461
-0.6024082487961381 0.3835171157590212 0.7000135167996767
-0.6196524754053281 0.2824655242872424 0.7322868545270914
-0.6322111755984179 0.1736230246878004 0.7550920968641673
-0.6390519933898645 0.05954438653890403 0.7668552769435349
-0.639501837083862 -0.05656667278108173 0.7667056879251929
-0.6333740012245259 -0.1712425090627656 0.7546611011988906
-0.6210069791793704 -0.2812056478731794 0.7316240259960971
-0.6032027212086855 -0.3837700136408747 0.699190284369369
-0.5810866388750136 -0.4770923148410882 0.6593339375767873
-0.5559334480534984 -0.5602386088729303 0.6140608296117505
-0.5290039683229613 -0.6330923751198032 0.5651095876586462
-0.5014226036024866 -0.6961647909805576 0.5137411375347503
-0.4741045461973714 -0.7503704820549199 0.4606180835959992
-0.4477250883094875 -0.7968123435905303 0.4057491027716855
-0.4227148350869284 -0.836590875312694 0.3484650277157965
-0.3992627715714483 -0.8706264107012663 0.2874002300390781
-0.3773115279360405 -0.8994600010916034 0.220471579399392
-0.3565354405820235 -0.9229803619667291 0.1448783318262171
-0.3363092812638978 -0.9400131849152545 0.05719510050029984
-0.3157270642395536 -0.9477198595584559 -0.04629782613873976
-0.2938821336170396 -0.9408153081697673 -0.1688189783588374
-0.2710540553846556 -0.9107533602792561 -0.3115413548785697
-0.2525417058525556 -0.8452356597158903 -0.4709558008451792
0 0 0
0 0 0
-0.2496172855347477 0.8707922593059056 -0.4235705984781993
-0.2617134920793356 0.927515880785135 -0.2668713902894319
-0.2763312522756106 0.9523677475595637 -0.1289833804182355
-0.2909930966483381 0.9566593650688593 -0.011219488805518
-0.3056690185907965 0.9480238276484909 0.08841534529957375
-0.3207293924477589 0.9311569161160524 0.1734342941558375
-0.336513929259097 0.9085431368117223 0.2476040063628194
-0.3532689117960136 0.8811454150382245 0.3142989556386951
-0.3711516649553558 0.8489309552373208 0.3762481559299878
-0.3902301132284275 0.811226346849832 0.4354678781568214
-0.4104649042923519 0.7669528842539554 0.4932563589846652
-0.4316767707981112 0.7148029447099745 0.550192616987236
-0.4535062560324447 0.6534097217065244 0.6061252439214494
-0.4753761892575066 0.581547483454393 0.6601666480328079
-0.4964716662581988 0.4983779981229741 0.7107286793071909
-0.5157558420239954 0.4037287870874135 0.7556447431796537
-0.5320389021823544 0.2983526946616148 0.7924142074399901
-0.5441076355463285 0.1840876315853828 0.8185710872230143
-0.5509029907863533 0.06382937883773922 0.832124813438368
-0.5517077552800423 -0.05873313576451031 0.8319669293470288
-0.5462894444662347 -0.1795915265619832 0.8181165726544773
-0.5349497636589411 -0.2949816248160832 0.7917162316020215
-0.5184644413946985 -0.4018743493323014 0.7547791931141331
-0.49793736071959 -0.4982682563599685 0.7097796344666455
-0.4746182235342027 -0.5832457597365801 0.6592131109425361
-0.449733851536093 -0.6568359442322654 0.6052321911027362
-0.4243655851918076 -0.719767795532569 0.5494071082712707
-0.3993817037142806 -0.7731958633919929 0.4926077664550045
-0.3754155463947946 -0.8184520348297636 0.4349706130396815
-0.3528710339519536 -0.8568413957656544 0.3759053815789871
-0.3319360373792216 -0.8894694306997215 0.3141060313647169
-0.312586688248893 -0.9170650336593072 0.2475505733563187
-0.2945707725877467 -0.9397470358769395 0.1735037996631877
-0.2773692453562276 -0.956671208748201 0.08858047235577499
-0.2601669879348451 -0.9655008858732346 -0.01100807734841846
-0.2419650737353657 -0.9616952729817051 -0.1288219896480477
-0.222305383831422 -0.9377140201127323 -0.2669695353473528
-0.2043789048549577 -0.8820692172815187 -0.4244798689863354
0 0 0
-0.08149512505771909 0.8288541047256002 -0.5534974414316202
-0.1679460081731818 0.9067294905342478 -0.3868278290586087
-0.2000678805694018 0.9517312195824641 -0.2327671128758149
-0.2177126890198883 0.9710440886068641 -0.09835935655235524
-0.2310673247156598 0.9728072023263388 0.0159385868491759
-0.2432435863485047 0.9633919276507881 0.1127322111803696
-0.2553992288233005 0.9467990946948024 0.1958129418643346
-0.2680576752844613 0.9250787016850793 0.2690250516396895
-0.2815007250229767 0.898910519021321 0.3357338538252541