# OOMMF: rectangular mesh v1.0
# Segment count: 1
# Begin: Segment
# Begin: Header
# Title: 
# Desc: time = 1.16e-09
# Desc: stepsize = 8.87923745430617e-14
# Desc: step = 7422
# meshunit: m
# valueunit: (none)
# valuemultiplier: 384000.0000000001
# xmin: 0
# ymin: 0
# zmin: 0
# xmax: 9.357999999999999e-08
# ymax: 9.357999999999999e-08
# zmax: 2.3395e-08
# ValueRangeMaxMag: 1
# ValueRangeMinMag: 0
# meshtype: rectangular
# xbase: 1.16975e-09
# ybase: 1.16975e-09
# zbase: 1.16975e-09
# xstepsize: 2.3395e-09
# ystepsize: 2.3395e-09
# zstepsize: 2.3395e-09
# xnodes: 40
# ynodes: 40
# znodes: 10
# End: Header
# Begin: Data Text
0 0 0
0 0 0
0 0 0
0 0 0
0 0 0
0 0 0
0 0 0
0 0 0
0 0 0
0 0 0
0 0 0
0 0 0
0 0 0
0 0 0
0 0 0
0 0 0
-0.8312382412645559 0.03417212043668682 -0.554865075891669
-0.8413849910553197 0.05380866815656209 -0.5377508010761636
-0.8523909199849595 0.03540817443355652 -0.5217048789406482
-0.8584656874276738 0.00117671373645758 -0.5128696509388257
-0.8577688642065026 -0.03764486684350547 -0.5126552834002792
-0.8503457150561554 -0.07237207175003224 -0.5212239903498719
-0.8381633051502952 -0.09167232723592555 -0.537660169920259
-0.8272903070822105 -0.07283554751939604 -0.5570329710397499
0 0 0
0 0 0
0 0 0
0 0 0
0 0 0
0 0 0
0 0 0
0 0 0
0 0 0
0 0 0
0 0 0
0 0 0
0 0 0
0 0 0
0 0 0
0 0 0
0 0 0
0 0 0
0 0 0
0 0 0
0 0 0
0 0 0
0 0 0
0 0 0
0 0 0
0 0 0
0 0 0
0 0 0
-0.7742312646942368 0.2421349765694152 -0.5847534539373757
-0.802563258574585 0.272994232586211 -0.5304397844815268
-0.8402296144911071 0.2566933559496308 -0.4776219382978979
-0.8776919249963548 0.209263705264303 -0.4311213129216036
-0.910735064771654 0.1279916939754882 -0.3926573163314998
-0.9245458547065195 0.08807981580075135 -0.370751815361026
-0.9333747363175445 0.04979752494796284 -0.3554318614210194
-0.9377546217007933 0.007491645105069466 -0.3472177194966025
-0.9371498747868729 -0.03673194295147648 -0.3469882945489038
-0.931563242203054 -0.07947123448222471 -0.3547876106433322
-0.9215126100752011 -0.1185872333927629 -0.3697993747272161
-0.9063105123231391 -0.1595359398689216 -0.3913432497727646
-0.871069194652485 -0.2410789549220669 -0.4279245209393294
-0.8312379199092182 -0.290387819919226 -0.4740447600676063
-0.7914225693748553 -0.3091104429438205 -0.5273528711851075
-0.7616240686040781 -0.2806546270878797 -0.5840905395716773
0 0 0
0 0 0
0 0 0
0 0 0
0 0 0
0 0 0
0 0 0
0 0 0
0 0 0
0 0 0
0 0 0
0 0 0
0 0 0
0 0 0
0 0 0
0 0 0
0 0 0
0 0 0
0 0 0
0 0 0
0 0 0
0 0 0
-0.7471411711220514 0.3343033559669005 -0.5744748354833625
-0.7853608609925764 0.3639830855977014 -0.5007241070886989
-0.8414600479000158 0.3277909412624093 -0.4295324046150721
-0.8761111368539546 0.3076765116596042 -0.3711663239754491
-0.906894567161404 0.2754173395097715 -0.3188848274071504
-0.9344016871672738 0.2274466807322886 -0.274155967366782
-0.9563697589152012 0.1671165748065524 -0.2396433488695339
-0.9693486503827728 0.1144272120453061 -0.2174157472324266
-0.9770183117623585 0.06447941753634787 -0.2031689523406652
-0.9805254246430221 0.0142160523424558 -0.1958769906967567
-0.9800022191372089 -0.03658010169862291 -0.1955953645817396
-0.9754284662809515 -0.08720023846019223 -0.2023250493173686
-0.9666129912157396 -0.1378562906004989 -0.2159976119192768
-0.9522944778766036 -0.1915508837711145 -0.2375783793450728
-0.9286430896971494 -0.253050920744297 -0.2712696877061557
-0.8992679674057457 -0.3027625306776235 -0.3156770071063448
-0.8665732135388023 -0.3371837667582508 -0.367910278480705
-0.8300043854003901 -0.3597597765229702 -0.4262225045821283
-0.7718265858215575 -0.3978531664078369 -0.4959804223941661
-0.7317394494345205 -0.3712163938428716 -0.5716255479626133
0 0 0
0 0 0
0 0 0
0 0 0
0 0 0
0 0 0
0 0 0
0 0 0
0 0 0
0 0 0
0 0 0
0 0 0
0 0 0
0 0 0
0 0 0
0 0 0
0 0 0
0 0 0
0 0 0
-0.7515098135946572 0.4142135674159748 -0.5134784519718957
-0.8033637975341232 0.4151312993604978 -0.4269339680826723
-0.8437653081420949 0.4064645994523627 -0.3504948418563464
-0.8824998479859948 0.3762809692325345 -0.2821465053799531
-0.912659495013852 0.3411319921372096 -0.2251257650771193
-0.937902611481126 0.2985999800995458 -0.1765693723765083
-0.9592449849695569 0.2475051032039499 -0.1363461869608245
-0.9760738138070761 0.1900791716812531 -0.1055927009460267
-0.9875283649135256 0.1327490254267417 -0.08464883188484218
-0.9945277051287328 0.07619839310214674 -0.07147341197974491
-0.9976960400581888 0.01976822787466997 -0.06489860413678607
-0.9972340157969924 -0.0368125590290779 -0.06456898044056208
-0.9931180289975691 -0.09353518030190325 -0.07048227100394414
-0.9850955800475028 -0.1506632109863881 -0.08298972843758849
-0.9724845617735605 -0.2088316730690682 -0.1032623330903349
-0.9543269154998758 -0.2673376006787668 -0.1333819538611291
-0.9315120081634786 -0.3198433354932658 -0.1731635625291446
-0.9046571226723581 -0.364141686817604 -0.2213511290230961
-0.8726908701611754 -0.4014725921466915 -0.2779035856054144
-0.8318637038517865 -0.4342434771124513 -0.3455942430065559
-0.7891927978408653 -0.4460583712473828 -0.4221453035108151
-0.7353834307000223 -0.4473694529026772 -0.5089909453629052
0 0 0
0 0 0
0 0 0
0 0 0
0 0 0
0 0 0
0 0 0
0 0 0
0 0 0
0 0 0
0 0 0
0 0 0
0 0 0
0 0 0
0 0 0
0 0 0
-0.6460981318353465 0.5018629331913949 -0.5750572148294499
-0.698080480527419 0.538820882696444 -0.4715460731220566
-0.7791797142776097 0.5051335728830162 -0.3711051689274895
-0.8294402308122062 0.4797166496593114 -0.2861832272336005
-0.8666653375632428 0.4509915043821442 -0.2133022635639862
-0.8979801600817081 0.4134811120794574 -0.1505490021659536
-0.9238424141795265 0.3699977215082717 -0.09806569146052643
-0.9455606176220442 0.3208737687270557 -0.05436122648647034
-0.9637369598891153 0.2661892762464573 -0.01882395694513845
-0.9782495263533146 0.2072606925341626 0.008418403635727326
-0.9888017256019191 0.1466668325170941 0.02756787416666563
-0.9955379268949001 0.08559441945066817 0.03972192685038049
-0.9986557544440379 0.02430551429205955 0.04578128537740451
-0.998243209098029 -0.03714698098473638 0.04615839353127048
-0.9942783561710556 -0.09870075649547209 0.04084986067300791
-0.986631565035243 -0.1602865273261282 0.02943440221639671
-0.9750724289295458 -0.2216142369852032 0.01099492186882491
-0.9594407426448607 -0.2814787055026646 -0.01559486138513531
-0.9400302084835477 -0.3373222608437014 -0.05056579355326087
-0.9169362957353813 -0.3878702510225502 -0.09372565249055625
-0.8894932856419369 -0.433128481247489 -0.1456070517871803
-0.8563008313245506 -0.4728691187021484 -0.2077105747205387
-0.8168203907136725 -0.5043453008746553 -0.2800718957696683
-0.7638546421988816 -0.5327289091064495 -0.3643157902060655
-0.6795474838414975 -0.5690085460096528 -0.4630815174163937
-0.624487136050127 -0.5358949508467352 -0.5681834374257004
0 0 0
0 0 0
0 0 0
0 0 0
0 0 0
0 0 0
0 0 0
0 0 0
0 0 0
0 0 0
0 0 0
0 0 0
0 0 0
-0.6253368867128682 0.5468994437779552 -0.5566460064633716
-0.6891304477086946 0.572045375530937 -0.4448182936598753
-0.741080295989487 0.5788848297871807 -0.3401357798562222
-0.7935289823125155 0.5574624861671842 -0.2440232176379221
-0.8346667421764916 0.5261158531178389 -0.1628911863870167
-0.8674306541856212 0.4884221005337038 -0.0949100199628537
-0.89493386352 0.4445925314691965 -0.03782672186400791
-0.9183727561778608 0.3955989846902672 0.009639710696296485
-0.9384585786499148 0.3419278783419983 0.04879366937339977
-0.9554651637204006 0.2839355749758311 0.08041710129003356
-0.9692930106025793 0.2224483937367108 0.1048225725735854
-0.9797034540071258 0.1587736669179209 0.1223603894237993
-0.9865648519494372 0.09390303771814235 0.133686246133585
-0.9898282027029338 0.02839776175428583 0.1394047928201379
-0.9894677332235119 -0.03739893503990081 0.1398389236493386
-0.9854606314380852 -0.1031883866574493 0.1349796308510382
-0.9777917683223498 -0.1686016544423593 0.1244859024964305
-0.966482052334987 -0.2330354414383507 0.1077354423947096
-0.9516502848606616 -0.2954588538025663 0.08405831924500218
-0.9335285763646662 -0.3545479216689471 0.05310525728013217
-0.9121976159948559 -0.4094903504325972 0.01460007794120603
-0.8873419806439086 -0.4599862774655927 -0.03219990574972908
-0.8581814004289356 -0.5056427046980231 -0.08860101096205421
-0.8234211387310535 -0.5455865179382868 -0.1559261996421069
-0.779819187210258 -0.5796549372485463 -0.2363941390604168
-0.7243355091390077 -0.6043227812251762 -0.3318614866063874
-0.6689854342633054 -0.6014572008141599 -0.436700955268398
-0.6022882558888201 -0.5797544007816641 -0.5487564957179973
0 0 0
0 0 0
0 0 0
0 0 0
0 0 0
0 0 0
0 0 0
0 0 0
0 0 0
0 0 0
0 0 0
-0.5832249019371554 0.5910890159061494 -0.5571916089062133
-0.6524521934612153 0.620317194066082 -0.4353305801269087
-0.706289773388441 0.6300886084370758 -0.3227121031581144
-0.7506930683124083 0.6223754438054636 -0.22160488292376
-0.79060432518269 0.5977962350756888 -0.1326064188934862
-0.8247667827731265 0.5625439599318613 -0.0574808418366152
-0.854020241554229 0.5202147662295097 0.005101373582882075
-0.8795795148538171 0.472302159692435 0.05718869643019331
-0.9021231762601043 0.4196322246815856 0.1004120055728566
-0.9219409591441826 0.3626547355895414 0.1360382689054211
-0.9390282538842225 0.3017330822525754 0.1648729373836355
-0.9531628677263716 0.2374454790872293 0.1873504524912467
-0.964028208865509 0.1706260413260428 0.2038047264735571
-0.9713433390896477 0.1021008649667314 0.2146334805644692
-0.974911286317064 0.03255332853604635 0.2202005100194619
-0.9746205977269029 -0.03744357875097435 0.2207094671661672
-0.9704425334820117 -0.1073414702627548 0.2161460107678231
-0.9624370714998509 -0.1765318275339358 0.2062799003061583
-0.9507655448598573 -0.2442708125527081 0.1907266338039287
-0.9356922634015099 -0.309665237232804 0.1690781744049471
-0.9175307916014492 -0.3718260927516018 0.1410056850353711
-0.8965026825498167 -0.4301467949980705 0.1060974784519879
-0.872603603210229 -0.4842741197939401 0.06357301756507469
-0.8455151655437436 -0.5338126077120173 0.01217393458298855
-0.8144965590048368 -0.5780323342385355 -0.04973907864074122
-0.7782240339299666 -0.6155776012735824 -0.1242238697836754
-0.7357130348920335 -0.6430389195461674 -0.2126670595998598
-0.6881274216121321 -0.6543872093558299 -0.3134613721926952
-0.6306372144406934 -0.6487855042751856 -0.4258803508086225
-0.5580965876688661 -0.6233390902322061 -0.5477011752962125
0 0 0
0 0 0
0 0 0
0 0 0
0 0 0
0 0 0
0 0 0
0 0 0
0 0 0
-0.5407492268504522 0.613232319003686 -0.5757919733636437
-0.6064729898031258 0.658624120982531 -0.4454265145893823
-0.6596922547959897 0.6785665286647429 -0.3230380707255159
-0.7033853634442361 0.6778912316112956 -0.2138048376368969
-0.7405955106323403 0.6613867398568665 -0.1186839078086329
-0.773854434218218 0.6322818461525306 -0.03699975225252888
-0.8038275437454118 0.594008640019863 0.03185930787023431
-0.8310195326346537 0.5490069094542089 0.08943125712645963
-0.8558527025641334 0.498598649944324 0.1375337696253751
-0.8785028866543674 0.4434594496675661 0.1776974806813044
-0.8989093973123273 0.3839538263409049 0.2110482282838836
-0.916823160712481 0.3203918783051484 0.2382946417720596
-0.9318631783278262 0.2532268686804364 0.2598214191614355
-0.9435947640216982 0.183112508595461 0.2758599835182921
-0.9516168549769651 0.1108131631396925 0.2866108933706554
-0.9556232007954284 0.03711280064449447 0.2922446545786965
-0.9554332084897561 -0.03721132563242704 0.2928526956673727
-0.9510065766867873 -0.111371409815373 0.2884144590241844
-0.942451059671448 -0.1845431081396463 0.2788007198023753
-0.9300207741842026 -0.255859540053557 0.2638129173285453
-0.9140919275260261 -0.3244563976812179 0.2432364981565905
-0.8951000636179774 -0.3895834171037666 0.2168424248823201
-0.8734449311676233 -0.4507119382674483 0.1842625868720638
-0.8494004053937321 -0.5074926527702408 0.1448107685953863
-0.8230422369522001 -0.5595700783225024 0.09737968801996688
-0.794178831894827 -0.6063363670348968 0.04044988233716035
-0.7623170874941833 -0.6466066321166244 -0.02779426950256726
-0.7268106300725151 -0.6781478917241449 -0.1089116383298411
-0.6868009994782049 -0.6977592865468015 -0.2035592423680053
-0.6395948836354193 -0.702350055436885 -0.3124464505402458
-0.5822797153287365 -0.6869556137585293 -0.4347899698041884
-0.5129186602988657 -0.6457259856179327 -0.565643350013916
0 0 0
0 0 0
0 0 0
0 0 0
0 0 0
0 0 0
0 0 0
0 0 0
-0.5752489919216235 0.669009368650618 -0.4706538663931877
-0.6108325488854983 0.714756409068894 -0.3405978169586303
-0.6499124518984053 0.7268176244783227 -0.2221484765085957
-0.6853952215213859 0.7183834438728429 -0.118989990692678
-0.7173184894315647 0.6960672238558331 -0.03073442033373576
-0.7468248799710037 0.6635464224034024 0.04425769957804704
-0.7745802678938023 0.6232455358527823 0.1076587694019531
-0.8008798600479997 0.5767184208178956 0.1612058090107431
-0.825777382411142 0.5248252995823094 0.2065190538825448
-0.8491239004077008 0.4679915924282684 0.2448927748482298
-0.8706001992930358 0.406448084278945 0.2772277904123277
-0.8897539506060159 0.3404289421592699 0.3040494083554626
-0.9060449405692967 0.2703180020586412 0.3255929105981936
-0.9189065339558317 0.196710873642508 0.3419292529809063
-0.9278186038813078 0.1203891268375197 0.3530709509872482
-0.9323738587772973 0.0422610842579273 0.3590166963054454
-0.9323256240647533 -0.03668713614042179 0.3597540614837887
-0.9276163482112364 -0.1154236636311831 0.3552538365805571
-0.9183879253141201 -0.1929007615617724 0.3454749120068107
-0.9049712587962671 -0.2680994757004097 0.3303781044225914
-0.8878491286496976 -0.3400998576543698 0.3099290428137536
-0.8675915163513417 -0.4081640294667834 0.2840547232570124
-0.8447756693680857 -0.4717839845121617 0.2525350280684455
-0.8199110489436281 -0.5306378778725455 0.2148704595496563
-0.7933743493896734 -0.5844592306777333 0.170189745302423
-0.7653468304252795 -0.6328524660943615 0.1172262142878574
-0.7357518623436706 -0.6750644656597633 0.05437981483342706
-0.7041887467507265 -0.7097287341150814 -0.0200831501773067
-0.6697946105971768 -0.7346708353973045 -0.1078607585343351
-0.6311794529002002 -0.7464744118694137 -0.2106856679055714
-0.5882001579086933 -0.7386529318183604 -0.329260414493343
-0.5486506880472204 -0.6975529693419827 -0.4608712157072665
0 0 0
0 0 0
0 0 0
0 0 0
0 0 0
0 0 0
0 0 0
-0.4545921896219955 0.7255473263275362 -0.5166498024713091
-0.5402726168078581 0.7545879442304214 -0.3724278909395683
-0.5876023469758095 0.7711298627315485 -0.2451167408239248
-0.6239710766528629 0.7699584754297093 -0.1335067099985023
-0.655448479893195 0.754301877775483 -0.03762934214252731
-0.6843283016223265 0.7278491240560484 0.04393663857812163
-0.7118423172342303 0.6931411983014232 0.1132951658804028
-0.7385837817536777 0.6517251571304049 0.1724770039564234
-0.7647148750313958 0.6044601735678908 0.2232466314997639
-0.7901084292279371 0.5517466633052036 0.2670286306644574
-0.8144296035472581 0.4937269594433066 0.304857524730361
-0.8371849275687362 0.4304643888448015 0.3373748760476993
-0.85776136203665 0.3620972146118129 0.3648712827387172
-0.8754707069038459 0.2889575939866082 0.3873687522642351
-0.8896089994727592 0.2116356959759705 0.4047297372887768
-0.89952991290482 0.1309814112758168 0.4167610894621059
-0.9047198797678019 0.04806124029589278 0.423287203130633
-0.9048610901295713 -0.03590550622664162 0.4241900543295796
-0.8998727792615411 -0.1196194440503197 0.4194283845297089
-0.8899254583311555 -0.201780983037537 0.4090441461486614
-0.8754243582608234 -0.2811784562381867 0.3931550186772832
-0.8569621303905783 -0.3567779437483787 0.3719212361927179
-0.8352472728003894 -0.4277961259541584 0.3454742651748829
-0.8110231428724207 -0.4937258704217418 0.3138092200711031
-0.784991705458299 -0.5542942569468399 0.2766692955089549
-0.7577457243456115 -0.6093603034568821 0.2334554300222647
-0.7297007948143677 -0.6587737770101973 0.1831771294976479
-0.7010139404111894 -0.7022052268269446 0.1244478797171571
-0.6714694152993821 -0.7389489803982453 0.05552682852368548
-0.6403129972146478 -0.7676867279460631 -0.02561939369815747
-0.6060477389936579 -0.7861490733374658 -0.1211436030144309
-0.5660931641811753 -0.7908512700510378 -0.2325785848396296
-0.5143587793651843 -0.7783832158830325 -0.3599369602049023
-0.4244829638491845 -0.7526586033163416 -0.5033082954370067
0 0 0
0 0 0
0 0 0
0 0 0
0 0 0
-0.3795073703434769 0.7220446197719044 -0.5784684286228803
-0.454551734250731 0.7802364004731234 -0.4296671738292281
-0.5132192390966833 0.8084589884595219 -0.2880973387590168
-0.5549418914948867 0.815478338881968 -0.1644219446375176
-0.5879221212606212 0.8067834286174727 -0.05872034264755525
-0.6167781892918944 0.786529697447791 0.03091440192689484
-0.6438362600210826 0.7576419371159453 0.1070213315431204
-0.670264773608531 0.7218777567865681 0.1721558524021085
-0.6965703510773483 0.6801263560943543 0.2285123317149304
-0.7228335753102887 0.6327182048250547 0.2778116190642584
-0.7488401340823222 0.5796602594674631 0.3212980503857472
-0.7741572677508162 0.5208173749769236 0.3597635149799615
-0.7981811982528115 0.456065180146159 0.3935877617685246
-0.8201762088840421 0.3854245654557092 0.4227988773919312
-0.8393213263410225 0.3091724203394712 0.4471600671466309
-0.8547747553300087 0.2279130002182278 0.4662786527196467
-0.8657560877822283 0.1425959901875743 0.4797215651296436
-0.8716359833081102 0.05448080470929886 0.4871165717985073
-0.8720167776296089 -0.03494385744535752 0.4882270643453833
-0.866788329147874 -0.124072053095302 0.4829949462403855
-0.8561473154812403 -0.2113109857031216 0.4715500413693546
-0.8405753976439003 -0.2952130189292947 0.4541830845930419
-0.8207795971987601 -0.3745899094810929 0.4312809438604807
-0.797607626582836 -0.4485866522657165 0.4032270941119056
-0.7719553217053554 -0.5166977844573625 0.3702814886375416
-0.7446810045530345 -0.5787218668185798 0.3324623321880248
-0.7165305160797921 -0.6346677798051714 0.2894491817290222
-0.6880664067218181 -0.6846300600877514 0.2405125792243862
-0.6595865432170424 -0.7286412975070051 0.1844653126587761
-0.6310134386296083 -0.7664924409917709 0.1196301724955419
-0.6017312713815977 -0.7974948456454739 0.04383432684993517
-0.5703311204934063 -0.8201543711749032 -0.04548868474064691
-0.5341376168777976 -0.8318167373729816 -0.1509235623164066
-0.4882042056542127 -0.8284658772282802 -0.2744101744650051
-0.4243644987121569 -0.8044037279301156 -0.4157516262444582
-0.3443724784076432 -0.7502391136378614 -0.5644013363584927
0 0 0
0 0 0
0 0 0
0 0 0
-0.407285407591683 0.762817625722409 -0.5022229252534205
-0.4439402267606278 0.823703973181301 -0.3527447230350303
-0.4830202147934506 0.8487041593673444 -0.2153896979278661
-0.5163662119389073 0.8508887311701605 -0.09671764231771288
-0.5451839245165641 0.838308810595129 0.003581414147690032
-0.5716316655477509 0.8157559928808867 0.08820090148077843
-0.5972242659914586 0.7858986988517406 0.1602698076809971
-0.6228137043410527 0.7500311574268537 0.222612561581573
-0.6487666240632556 0.7085912663019595 0.2774892517236502
-0.6750977388325122 0.6615174364611823 0.3265543205671212
-0.70155131844329 0.608491798748068 0.3708955087983971
-0.7276494364826128 0.5491182498066869 0.4110905561014221
-0.7527244110570258 0.4830711454396541 0.4472675144054992
-0.7759513462334419 0.4102307403481246 0.4791766354403541
-0.7963952224512648 0.3308031093603318 0.5062844580809649
-0.8130818130223546 0.2454078824547193 0.5278948158121757
-0.8250930569915127 0.155113434006175 0.5432874652476457
-0.8316757151337806 0.06140494618935741 0.5518559027864032
-0.8323436523867973 -0.03391581682021059 0.5532212592632567
-0.8269508802817698 -0.1288868684057287 0.5473028565189203
-0.8157178014871844 -0.2215724686405089 0.5343314603104184
-0.7992034234142087 -0.3102463575774279 0.5148019867997277
-0.7782306964428289 -0.3935368188342061 0.489372818346056
-0.753782813148922 -0.4705083828401349 0.4587301301184147
-0.7268933000173876 -0.5406695635128761 0.4234413223583968
-0.6985470217855618 -0.6039151398089583 0.3838210028959432
-0.6695991040464605 -0.6604225133076459 0.3398222237826553
-0.6407066583496144 -0.7105223059834422 0.2909519387226033
-0.6122614340768177 -0.7545497206495821 0.2362004559898972
-0.5843066924797257 -0.7926648931889513 0.1739771715747525
-0.5564212877797382 -0.8246079065670288 0.1020644449976539
-0.5275559904545658 -0.8493368871597159 0.01765018541958015
-0.4958483331565296 -0.8644885952166275 -0.08242511295880797
-0.4587054498428307 -0.8655678478849297 -0.2009517628495376
-0.414664220347128 -0.8446737324687837 -0.3384964845329435
-0.3726999376629049 -0.7884057005096178 -0.4893988229144048
0 0 0
0 0 0
0 0 0
-0.2909146078903598 0.7532148318421663 -0.5899458517601209
-0.3701911068656246 0.8221435685446622 -0.4324794759271837
-0.4122799623461357 0.8654322190502044 -0.2846968684016515
-0.4444865132243226 0.8826512497693711 -0.1528349136887587
-0.4720309782600319 0.8806812379562244 -0.03984109279084187
-0.497108498316071 0.8659150863862072 0.05544550541484379
-0.5211888370392692 0.8425262147599855 0.1360579787732568
-0.5452374798671507 0.8127505078772168 0.2053112332373567
-0.5698078112432687 0.7775035341536397 0.2660964348215789
-0.5951282751819579 0.7368867475392107 0.320655979797712
-0.6211619747465299 0.690536525822219 0.3705632302784107
-0.6476387217255655 0.6378610332886182 0.4167701864740943
-0.6740704787827527 0.5782173269529416 0.4596669581827532
-0.6997624826900161 0.511066268998953 0.4991430020655344
-0.7238337585585717 0.4361230385046753 0.5346600651408521
-0.745260200963583 0.3535002264192399 0.5653537147496825
-0.7629502492526772 0.263823525289149 0.5901729108229917
-0.775853758318784 0.1682897415144059 0.6080538698204558
-0.7830922550915576 0.0686400090558555 0.6181060339233314
-0.7840858028940791 -0.03296431154454914 0.6197764176413462
-0.7786465402968531 -0.1341497695304449 0.6129546513557661
-0.7670133323275838 -0.2325847059487301 0.5979923934219209
-0.7498181208096063 -0.3262237224606643 0.5756308440393526
-0.7279934507851036 -0.4134916118094633 0.5468548459849363
-0.7026465804974837 -0.4933746105160396 0.5127077887192065
-0.6749289733473345 -0.5654157147230544 0.4741054212730856
-0.6459240395983653 -0.6296329062678367 0.4316764279105894
-0.6165620743292675 -0.686390884162803 0.3856407170372387
-0.5875597797868338 -0.7362513100162564 0.3357193972295804
-0.5593725029228998 -0.7798119462103387 0.2810617930658911
-0.5321446727410813 -0.81752284565075 0.2201782098945914
-0.5056427304859893 -0.8494460644675549 0.1508867544460249
-0.4791604598655642 -0.8749053881625926 0.07032649191793484
-0.4514066259489208 -0.8919728487375402 -0.0248293206602073
-0.4204333404674754 -0.8968156483495007 -0.1376862342386637
-0.3835702102628923 -0.8832993590211584 -0.2695480219769573
-0.3356070873542069 -0.8444099898384733 -0.4175400004533871
-0.2507741899404825 -0.7794142969716837 -0.5741303504743763
0 0 0
0 0 0
-0.3203023528336776 0.7836541978687996 -0.5322522906778492
-0.3485635691552632 0.8595788182206016 -0.3736678920167179
-0.37597193519483 0.8982351024711389 -0.2276374411965576
-0.4003558718705158 0.9108417544197435 -0.1004115245594946
-0.4227968863993048 0.9061933372594663 0.007511881096220718
-0.4444086348077378 0.8903911151476335 0.09851206715157176
-0.4660338904867011 0.8670801662403766 0.1760238569921398
-0.4882404483177966 0.8380662964567716 0.243446395269404
-0.5113593249975055 0.803933948045908 0.3036475718944813
-0.5355170206715357 0.7645114459480438 0.3588088203842162
-0.5606483160026546 0.7191869972166859 0.4104187237417825
-0.586492393649138 0.6671273972841889 0.459312211882645
-0.612580405834259 0.6074513103905871 0.5057154851225073
-0.6382254753973978 0.5393941663298979 0.5492924320278219
-0.66252787632471 0.4624816562850617 0.5892092418593712
-0.6844099777237028 0.3767072089735883 0.6242392659065666
-0.7026922529140854 0.2826865869886153 0.6529256398942028
-0.7162131480408435 0.181747887471106 0.673799994043644
-0.7239797527524933 0.0759132827776498 0.6856314542831001
-0.7253204581487551 -0.03225137071035324 0.6876554966537985
-0.7200005382886591 -0.139906704493135 0.6797244580724688
-0.7082673374303902 -0.2442742563821511 0.6623348597184149
-0.6908110783712854 -0.3429552951093677 0.6365231492694886
-0.6686546797314394 -0.4341598117787667 0.6036606473089592
-0.6430046648114008 -0.5168071637154489 0.5652038186027855
-0.6151008890696269 -0.5905007745229544 0.5224554828437968
-0.5860924146083918 -0.6554111182123175 0.4763737478725963
-0.5569518585142456 -0.7121099991247748 0.4274388569655789
-0.5284246288237697 -0.7613914585391059 0.3755668495969176
-0.5010012850280673 -0.8040935108989727 0.3200489620829726
-0.4748965635601229 -0.8409122277302002 0.2594992854953894
-0.4500200387475579 -0.8721756970509249 0.1918111524374402
-0.4259267746665891 -0.8975267218312402 0.1141585135720652
-0.4017517698669794 -0.9154561828793614 0.02314071383294314
-0.3761687166051512 -0.922667864245187 -0.08474142397232816
-0.3474982588948452 -0.913394609679926 -0.212026524455564
-0.3143980312099872 -0.8789826201885301 -0.3585295404534884
-0.2801451879970756 -0.8077413218285968 -0.5187221131325266
0 0 0
0 0 0
-0.3023288631047352 0.8244231248356991 -0.4784597890836165
-0.3149590441361322 0.893201995784135 -0.3209221015201217
-0.3325874145629035 0.92595130803834 -0.1788848423328531
-0.3508424626672217 0.9347195208888065 -0.05664789192016142
-0.36903738286798 0.9282436288419793 0.04663877743064334
-0.3874505274669449 0.9120930563870252 0.1340460564737381
-0.4064818374869482 0.8893801642997253 0.2092258089802196
-0.4264472717584351 0.8615095103685095 0.2755795492310668
-0.4475445183981907 0.8287743706826278 0.3359121113495982
-0.4698471056768422 0.7907710460645448 0.3923325757480242
-0.4932909503268542 0.746673806955671 0.4462535874723629
-0.5176491615946676 0.6954296609555664 0.4984144180935811
-0.542501001215368 0.6359249416824321 0.5489008400672364
-0.5672044129850499 0.5671602487899569 0.5971669834165306
-0.5908859026263448 0.4884511195079333 0.6420820461038416
-0.6124635691336792 0.3996471384395037 0.6820341202763617
-0.6307182822028847 0.3013355684700513 0.7151163007999977
-0.6444181378955488 0.1949722691384592 0.7393991329574529
-0.6524847560013239 0.0828777929658933 0.753256207819753
-0.6541683060520468 -0.03194157915703008 0.7556742438894886
-0.649184956490693 -0.1461352019097257 0.7464605783489038
-0.6377735043787065 -0.2564378624417314 0.7262813365485989
-0.6206535859295106 -0.3600746085059521 0.6965166204636645
-0.5989004417129627 -0.4550404825468132 0.658981350388295
-0.5737767391621025 -0.5402067074487791 0.6155948073399038
-0.5465659144174491 -0.6152663742918636 0.5680783307456477
-0.5184404564852447 -0.6805707031797 0.517728704103664
-0.4903777191494855 -0.736917283789382 0.4652769169153214
-0.4631195895535615 -0.7853358059500205 0.4108137262368091
-0.437160894449528 -0.8268917750699215 0.3537518122721101
-0.4127492965226985 -0.8625004430043018 0.2927985724647577
-0.3898797155068764 -0.8927201291556481 0.2259304725719828
-0.3682732734904664 -0.9174734378999931 0.1503904477704053
-0.3473467853272911 -0.9356329929973114 0.06277828555869581
-0.3262312377505486 -0.9444167164206636 -0.04062321086467784
-0.304048429553275 -0.9385982411961137 -0.163057947091666
-0.2810898701595153 -0.9096731984803129 -0.3057501543095329
-0.2626344743502973 -0.8453302610495812 -0.4652309992214506
0 0 0
0 0 0
-0.2536407631099253 0.8654107063722235 -0.4321234460028097
-0.2659518398509862 0.9236124237486213 -0.276061061319904
-0.280889197747224 0.9496913364373646 -0.1385193996692615
-0.2959288667709368 0.9549785393992999 -0.02102605760594551
-0.3110267882218111 0.9471718297989947 0.07828066072567429
-0.3265476937791119 0.9310483942493165 0.1628357800156703
-0.3428274460401516 0.9091755452838327 0.2363666010658695
-0.3601090818144373 0.8825955345772686 0.3022359534188937
-0.3785477951909688 0.8513512458030499 0.3631840071171237
-0.3982118041163189 0.8148414651908988 0.4212608997616265
-0.4190657790479055 0.7720538883153112 0.4778249327611321
-0.4409395066701187 0.721734991673054 0.533545643082397
-0.4634880070285738 0.6625480720029021 0.5883952070045415
-0.4861530925315657 0.5932573279578033 0.6416392393287379
-0.5081397886645233 0.5129564139709255 0.6918595757392257
-0.5284257880315049 0.4213334421646724 0.7370510952823766
-0.54582130342257 0.3189300157433309 0.7748307878421229
-0.5590893315836986 0.2073211866495271 0.8027683631506192
-0.5671170086718017 0.08913086513877803 0.818800334241969
-0.5691050521202664 -0.03217550655114835 0.821635062804263
-0.5647221781950895 -0.1527116179213292 0.8110289903612835
-0.5541740551570957 -0.2687064977593436 0.7878375052335648
-0.5381632107319809 -0.3770051275049652 0.753821923566574
-0.5177571403761392 -0.4754002026868815 0.7112820754628887
-0.4942093523093539 -0.562739449808868 0.6626321964097286
-0.4687848073443482 -0.6388330241046819 0.6100271893255155
-0.4426255267243754 -0.7042352687612752 0.5550993868891433
-0.4166706522867787 -0.7599808605091863 0.4988132508089841
-0.3916244009482381 -0.8073340174020779 0.4414092352085018
-0.3679556525572934 -0.8475745782203886 0.3823950471772168
-0.3459087639239087 -0.8818140369587769 0.3205481730771486
-0.3255082479531153 -0.9108089248617548 0.2539123528044011
-0.3065435951586744 -0.9347209623041848 0.1797991849156519
-0.2885326075151464 -0.9527604121806663 0.09485004682042338
-0.2706927246197782 -0.9626542273186229 -0.004720960019445264
-0.2520519142470553 -0.9599287702529019 -0.1225013818907607
-0.2321684248248826 -0.9370984888816611 -0.2606611682818121
-0.2142309262544572 -0.8826814789201347 -0.4183043353917344
0 0 0
-0.08564138732876184 0.8228080834301286 -0.5618295209567069
-0.1725904478470839 0.9020455355703189 -0.3956341606454112
-0.2050633666225827 0.948374578356053 -0.2419394031516786
-0.2230838546359062 0.9688220606404079 -0.1077840833205854
-0.2368714848551097 0.9715207902629598 0.006265281268140538
-0.2495441009892034 0.9629003723149827 0.1027161849815161
-0.2622585487449293 0.9470402437314327 0.1852976804045632
-0.2755348185970823 0.9260713271175285 0.2578225374777229
-0.2896503898178844 0.9007520028462173 0.3236487000543569