# OOMMF: rectangular mesh v1.0
# Segment count: 1
# Begin: Segment
# Begin: Header
# Title: 
# Desc: time = 1.22e-09
# Desc: stepsize = 8.971050420390708e-14
# Desc: step = 7806
# meshunit: m
# valueunit: (none)
# valuemultiplier: 384000.0000000001
# xmin: 0
# ymin: 0
# zmin: 0
# xmax: 9.357999999999999e-08
# ymax: 9.357999999999999e-08
# zmax: 2.3395e-08
# ValueRangeMaxMag: 1
# ValueRangeMinMag: 0
# meshtype: rectangular
# xbase: 1.16975e-09
# ybase: 1.16975e-09
# zbase: 1.16975e-09
# xstepsize: 2.3395e-09
# ystepsize: 2.3395e-09
# zstepsize: 2.3395e-09
# xnodes: 40
# ynodes: 40
# znodes: 10
# End: Header
# Begin: Data Text
0 0 0
0 0 0
0 0 0
0 0 0
0 0 0
0 0 0
0 0 0
0 0 0
0 0 0
0 0 0
0 0 0
0 0 0
0 0 0
0 0 0
0 0 0
0 0 0
-0.8312348026524932 0.02972098007587349 -0.5551264416352364
-0.84119043124423 0.04937867951791331 -0.538479715859579
-0.851932471369468 0.03102917151357415 -0.5227315321859691
-0.8577117041715259 -0.003125880478867561 -0.5141214461568473
-0.8567075458013926 -0.04184105355416681 -0.5141026232226706
-0.8489811357328794 -0.07642478552845976 -0.5228673668595492
-0.8365228510465721 -0.09553055081876505 -0.5395400203295183
-0.825453810330383 -0.07640467979587211 -0.5592748268216097
0 0 0
0 0 0
0 0 0
0 0 0
0 0 0
0 0 0
0 0 0
0 0 0
0 0 0
0 0 0
0 0 0
0 0 0
0 0 0
0 0 0
0 0 0
0 0 0
0 0 0
0 0 0
0 0 0
0 0 0
0 0 0
0 0 0
0 0 0
0 0 0
0 0 0
0 0 0
0 0 0
0 0 0
-0.7756320408575699 0.2380483529049157 -0.5845749899494307
-0.8038056476545151 0.2688222704340607 -0.5306892383659023
-0.8412335394822743 0.2524467174180791 -0.4781179633887028
-0.8783993665784579 0.2049443996618932 -0.4317549604136464
-0.911059656667455 0.1235940117019565 -0.3933126266272096
-0.9246019863471562 0.08365848191224946 -0.3716348009094821
-0.9331679669167582 0.04539816327728311 -0.3565621296373084
-0.9372732048486913 0.003152839328520623 -0.3485814095399108
-0.9363859031454317 -0.04097261677380942 -0.3485723526977145
-0.9305170311731203 -0.0835736949598857 -0.3565858833542256
-0.9201906318985078 -0.1225076585514566 -0.3718078462895368
-0.9047044024488536 -0.1632343561883864 -0.3935282571168492
-0.869036604010979 -0.2445864433102651 -0.4300614521645699
-0.8288479472322894 -0.2936478779355898 -0.4762163417531411
-0.7887386176171455 -0.3120666798128722 -0.529627964169155
-0.7587452979301352 -0.28322969724235 -0.586588877723501
0 0 0
0 0 0
0 0 0
0 0 0
0 0 0
0 0 0
0 0 0
0 0 0
0 0 0
0 0 0
0 0 0
0 0 0
0 0 0
0 0 0
0 0 0
0 0 0
0 0 0
0 0 0
0 0 0
0 0 0
0 0 0
0 0 0
-0.7491666947684305 0.3306439761451643 -0.573954549148851
-0.7872300153359231 0.360167617208731 -0.5005478902846229
-0.8430466217405418 0.3237872515427372 -0.4294580413850221
-0.8774903561335582 0.3035240370306029 -0.3713271251029821
-0.9080470416821632 0.2711444442470712 -0.3192667543704131
-0.9352899525648366 0.2230681096693187 -0.2747240853653385
-0.956956486400918 0.1626452163260473 -0.240376406374382
-0.9696591203665216 0.1099041120336435 -0.2183627176239553
-0.9770601653515552 0.05995317472074156 -0.2043503122681619
-0.9802959874230019 0.009734105064692928 -0.1972942580029897
-0.9794981014754831 -0.0409715832477692 -0.1972429937211828
-0.9746489132187554 -0.09145544123599873 -0.204194510773006
-0.9655565218855584 -0.1419304727052557 -0.2180741707812392
-0.9509460839396012 -0.1954059146340309 -0.2398292600288259
-0.9269561656612076 -0.2566678657697199 -0.2736309076546139
-0.8972614514188451 -0.3061083244784832 -0.3181502498548804
-0.8642786323002972 -0.3402167116257407 -0.3705064572712524
-0.827441420188393 -0.3624355727697151 -0.4289302411205152
-0.7689086812315956 -0.4001679208691291 -0.4986432342205862
-0.7286103471706562 -0.3730942912853006 -0.5743932553627126
0 0 0
0 0 0
0 0 0
0 0 0
0 0 0
0 0 0
0 0 0
0 0 0
0 0 0
0 0 0
0 0 0
0 0 0
0 0 0
0 0 0
0 0 0
0 0 0
0 0 0
0 0 0
0 0 0
-0.7538385095534362 0.4108605825749028 -0.5127583087580977
-0.8054910163515449 0.4115451580729523 -0.4263974735427773
-0.8457212164760926 0.4026577468463602 -0.3501747605222427
-0.8842488423956788 0.3722554363792415 -0.2820104161338753
-0.9142080104072176 0.336909599629194 -0.2252013218988116
-0.9392348487883312 0.2942067368530037 -0.17686236120743
-0.9603330277187302 0.2429646435603464 -0.1368526866823209
-0.9768914938960728 0.1854191431339239 -0.1063143946649756
-0.9880713300593155 0.128012671491028 -0.08560258554824687
-0.9947942472721727 0.07143820806112712 -0.07267040679124803
-0.9976836560320722 0.01503937393133598 -0.06634108620026209
-0.9969413558373724 -0.04145516567450615 -0.06625256417709464
-0.9925457728403546 -0.09803821858976534 -0.07239748968360447
-0.9842441429864135 -0.1549768273271571 -0.08512138385005426
-0.9713492950607937 -0.2129126058274791 -0.1055877325481091
-0.9528981618922787 -0.2711520243626314 -0.1358737382512268
-0.9298012431651504 -0.3233587018867577 -0.1758089819168836
-0.9026816634485207 -0.3673238181946894 -0.2241406412516157
-0.8704566311939969 -0.4042872283135185 -0.2808150463080114
-0.8293484759298961 -0.436663898604307 -0.3485767420933951
-0.7864270991206863 -0.4480467925875945 -0.4251899451075841
-0.7323437681902777 -0.4489025863293999 -0.5120147196904008
0 0 0
0 0 0
0 0 0
0 0 0
0 0 0
0 0 0
0 0 0
0 0 0
0 0 0
0 0 0
0 0 0
0 0 0
0 0 0
0 0 0
0 0 0
0 0 0
-0.648981486835613 0.4991035559066013 -0.5742113463055416
-0.700817745680279 0.5358314157184307 -0.4708918997697806
-0.7816366346271649 0.5018474581829169 -0.3703961394562105
-0.8317052582104734 0.476137840816079 -0.2855855738794443
-0.8687667115077458 0.4471327084031986 -0.2128772934157999
-0.8999080828389121 0.4093536459789737 -0.1503164494156057
-0.9255854740732108 0.3656209311829278 -0.0980452184739148
-0.947097557232523 0.3162732586515426 -0.05456595042809947
-0.9650395905155126 0.261395335497146 -0.01926310769282723
-0.9792906074364425 0.2023118356807618 0.007734812877062461
-0.9895637557017553 0.1416139139047331 0.0266284207195767
-0.9960102326203577 0.08049766142398923 0.03851938500039945
-0.9988325229131993 0.0192295161470374 0.04431497353720601
-0.998123287788992 -0.04213699658362441 0.04443394977046391
-0.9938649508256064 -0.1035418935279424 0.03887847482942473
-0.9859307960990134 -0.1649208102687888 0.02723218029925245
-0.9740915235359056 -0.2259912714904002 0.008581898720558616
-0.9581889092402395 -0.2855571123107338 -0.01819752229711905
-0.9385241677688435 -0.3410677144257883 -0.0533404226658161
-0.9151933697375658 -0.3912528111619406 -0.09665574864578452
-0.8875218047753913 -0.4361213222514773 -0.148671578742726
-0.8540950674965272 -0.4754487645777767 -0.2108793207964399
-0.8143738770968834 -0.5064889482901113 -0.2833092542826068
-0.7611216442643141 -0.5344220166284144 -0.3675417673886943
-0.6764116759270749 -0.5702670943501503 -0.4661144556554343
-0.6211250914451354 -0.5366501681582166 -0.5711481574802018
0 0 0
0 0 0
0 0 0
0 0 0
0 0 0
0 0 0
0 0 0
0 0 0
0 0 0
0 0 0
0 0 0
0 0 0
0 0 0
-0.628397525169871 0.5445310420119687 -0.5555200218225624
-0.6920186812135888 0.5693675232016872 -0.443768823121432
-0.7438257254316761 0.5759032125598438 -0.3392031543917176
-0.7961010993882452 0.5541554077778948 -0.2431765276159309
-0.8370899664768718 0.5224741856999074 -0.1621761798198726
-0.8697156238908625 0.4844481051438123 -0.09436507289615599
-0.8970706825200905 0.440294860831655 -0.03747834158780197
-0.9203410757592384 0.3909947208119053 0.009768959389181606
-0.9402296468403931 0.3370430986357945 0.04868429792418702
-0.9570051779537496 0.2788060586708896 0.08005167717241203
-0.9705687090803664 0.217121685205784 0.1041851945694342
-0.9806878753548773 0.1533103425286285 0.1214381735933586
-0.9872391630393199 0.08837401583077166 0.1324721415519684
-0.9901819811821138 0.02287982642209363 0.1378990851498247
-0.9894989453143452 -0.0428277838682669 0.1380493323081673
-0.9851751530213451 -0.1084529636426369 0.1329205497524653
-0.977202233500037 -0.1736333270544207 0.1221771769953426
-0.9656064519489843 -0.2377751334471773 0.1052005982334244
-0.9505110623722677 -0.2998590235748702 0.08132211438881751
-0.9321516711360597 -0.358572313182098 0.05019121653725738
-0.9106071784433537 -0.4131121230023015 0.01152997814241979
-0.8855539294281448 -0.4631854465989914 -0.03540452136754135
-0.8561990905631203 -0.5084038598934583 -0.0919164433837495
-0.8212345126198919 -0.5478959832956521 -0.159323152022732
-0.7773942807209036 -0.5814993066276219 -0.2398263719736077
-0.7216246108897644 -0.6056874676310292 -0.3352620057699744
-0.6660218897938116 -0.6023082989724953 -0.4400449469137652
-0.5990614028724609 -0.5800703236518314 -0.5519455183321431
0 0 0
0 0 0
0 0 0
0 0 0
0 0 0
0 0 0
0 0 0
0 0 0
0 0 0
0 0 0
0 0 0
-0.5864543056122418 0.5891473927811697 -0.555856723453097
-0.6555030337079714 0.6180249044081417 -0.4340057491911283
-0.709209559263026 0.6274411258177105 -0.3214645154329597
-0.7535064278336802 0.6193718514537019 -0.2204689838506539
-0.7933116660453372 0.5944237846939516 -0.1315939387148554
-0.8273738782191727 0.5587906960408244 -0.05661646102305905
-0.8565235352492236 0.5160754878315214 0.005790027947094337
-0.8819611491672656 0.467780056435708 0.05767451916194309
-0.9043537971644995 0.4147410523705069 0.1006681132869537
-0.9239827114827471 0.3574206948335261 0.1360382144314941
-0.9408386347402283 0.2961964297119786 0.1645914287137079
-0.9546997166313519 0.2316621396048239 0.1867648364594656
-0.965254971353379 0.1646674963950579 0.2028976488492917
-0.9722327262264433 0.0960513056216053 0.2133955780766835
-0.9754473482063936 0.02650462618622245 0.2186320554443983
-0.9747995708907187 -0.04339742715473698 0.2188206112495323
-0.9702726351462116 -0.1131099780407213 0.2139559448906557
-0.9619373112230106 -0.1820329679376196 0.2038151315797372
-0.9499637306957568 -0.2494352352054023 0.1880185464272731
-0.934622412175202 -0.314438836147077 0.1661600583241282
-0.9162295407167729 -0.3761706201883183 0.1379097285367015
-0.8950040643817906 -0.4340380839372349 0.1028526442643503
-0.8709335000727997 -0.4876989618921367 0.06020432725538898
-0.8436870373126714 -0.5367647876430344 0.00870320728782847
-0.8125086712036694 -0.5805081696561741 -0.05329093901673621
-0.7760573051816415 -0.6175710238478915 -0.1278322712685451
-0.7333394662095025 -0.6445366612825422 -0.2163000683363613
-0.6855343891239589 -0.6553642284464203 -0.3170809508647088
-0.6277981681858642 -0.6492122673008388 -0.4294099346877955
-0.5549823547523616 -0.6231992339607836 -0.5510147917290565
0 0 0
0 0 0
0 0 0
0 0 0
0 0 0
0 0 0
0 0 0
0 0 0
0 0 0
-0.5440915977793945 0.6117444741938037 -0.5742238514022308
-0.6096496071158133 0.6567553743091886 -0.4438465217386877
-0.6627504002496224 0.6763100547018922 -0.3215067913405379
-0.7063630654395647 0.6752429426454997 -0.2123633400336951
-0.7435165584372035 0.6583390228568198 -0.1173578216976762
-0.7767263342609947 0.6288196058534561 -0.03580649326282927
-0.8066485873187271 0.5901149982458623 0.03289901855659677
-0.8337760574626095 0.5446694989727422 0.09029187610681745
-0.8585175799971081 0.4938140537699429 0.138185546043008
-0.8810369568203347 0.438237018133618 0.1781072616546495
-0.9012643847118985 0.3783188072683125 0.2111809388106882
-0.9189456973261775 0.3143880843069096 0.2381153875992399
-0.9336999692172262 0.246918208652152 0.2592986033895333
-0.9450981985451296 0.1765825759964368 0.2749690690990764
-0.9527499911923939 0.1041617697891854 0.2853380100815128
-0.9563633530800465 0.03045025752881171 0.2905889170321521
-0.9557739072433854 -0.04377145887059285 0.2908269203857368
-0.9509578216771905 -0.1177196886570848 0.2860442208705692
-0.9420379134794484 -0.1905812144189006 0.2761220206320089
-0.9292804961836978 -0.2615057742364384 0.2608687207266914
-0.9130698346597896 -0.3296492929899887 0.2400725320929995
-0.8938444054264372 -0.3942825024383775 0.2135028973077155
-0.8720010873631947 -0.4548959447784123 0.1807865677022523
-0.8478054957345716 -0.5111554852712511 0.1412299942624377
-0.8213208798708508 -0.5627157016914786 0.0937179350926895
-0.7923405187952155 -0.6089727748850697 0.03672412999794987
-0.7603554384716409 -0.6487394652901075 -0.03157076751844578
-0.7247070930257562 -0.6797741508155851 -0.1127241464864888
-0.6845313460756329 -0.6988625968090959 -0.2073834781778153
-0.6371244979506789 -0.7029006969895051 -0.3162324845469902
-0.5795726816922184 -0.6869189033265588 -0.4384494576216597
-0.5099571255767915 -0.6450807432671841 -0.5690470672442772
0 0 0
0 0 0
0 0 0
0 0 0
0 0 0
0 0 0
0 0 0
0 0 0
-0.5784506860445611 0.6675817130809447 -0.4687530908425961
-0.6139671691455444 0.7129292041976126 -0.3387864593125944
-0.6529956069192965 0.724578200347878 -0.2204158998909315
-0.6884557743158061 0.7157211756496629 -0.1173535067132113
-0.720377590199122 0.6929667048977954 -0.0292108445957465
-0.7498898660877021 0.659985647871292 0.04565230928308733
-0.7776446984423436 0.6192000150255408 0.1089039226882397
-0.8039227899457195 0.5721672181011493 0.162273911446917
-0.8287631750001189 0.5197569295225412 0.2073748634165236
-0.8520035952914606 0.4624092958438953 0.2454944331906064
-0.8733142872138285 0.4003746119214645 0.2775289640324746
-0.8922366463586849 0.3339103179149399 0.30400274091618
-0.9082297807409284 0.2634258474985739 0.325154560547661
-0.9207328765758972 0.1895419036123296 0.3410642707280952
-0.9292379775248825 0.1130614199852178 0.3517582926334383
-0.9333551713024467 0.03490696088008906 0.3572528912200651
-0.9328584058979571 -0.04393021468356281 0.3575546542605448
-0.9277115937095024 -0.1224232222138382 0.3526524543509596
-0.9180764414040703 -0.1995386183890926 0.3425200541723216
-0.9042997331801149 -0.2742793439505488 0.3271281615092603
-0.8868745079239647 -0.3457517621493464 0.3064462859380845
-0.8663743774349353 -0.4132453726078142 0.2803991799960485
-0.8433735941138798 -0.4762770038072136 0.2487593141891564
-0.8183728388576318 -0.534544708357609 0.2110162348895898
-0.791735821657621 -0.5877952735205924 0.166286214494717
-0.7636282592204221 -0.6356391447980231 0.1132905967873118
-0.7339572743768442 -0.6773215901009766 0.050420065176455
-0.7023071546358368 -0.7114672346674689 -0.02406313657732033
-0.6678024084715088 -0.7358864821825383 -0.1118527093130067
-0.6290423696249594 -0.7471442820102794 -0.2146651324178177
-0.5858855606520001 -0.7387367122932753 -0.3331758990827721
-0.546165510955725 -0.6969972679839485 -0.4646483004008333
0 0 0
0 0 0
0 0 0
0 0 0
0 0 0
0 0 0
0 0 0
-0.4580168404479296 0.7246808128189025 -0.5148381234895393
-0.5434873741436137 0.7532592423512797 -0.3704348633145311
-0.5907468003332306 0.7693541714551233 -0.2431303698854801
-0.627107069887969 0.7677388228140235 -0.1315820004433076
-0.6586148533101138 0.7516286055103394 -0.03578986417799106
-0.6875480929574965 0.724700823347981 0.04567643275549601
-0.7151225716897404 0.6894875250523589 0.1149202343237433
-0.7419152987712339 0.6475319626506312 0.1739656483188899
-0.768071770665285 0.5996960837616149 0.2245670550817185
-0.7934482109896931 0.5463899559679862 0.2681379355752497
-0.8176942852905833 0.4877725001530181 0.3057025415294995
-0.8403036983057276 0.4239300666163539 0.3378949440763649
-0.8606549901380272 0.3550295463383385 0.3650027522873014
-0.8780578196967364 0.2814351445881335 0.3870513204473913
-0.891813721836537 0.2037693434343608 0.403913778200735
-0.9012899294444049 0.1229100873733468 0.4154149413586076
-0.9059935184871509 0.0399435008210067 0.4214027304152577
-0.9056321508329549 -0.04390348381357836 0.4217853618686955
-0.9001521623098103 -0.1273371520583877 0.4165469173990264
-0.8897492511894831 -0.2090764222169358 0.4057503169200475
-0.8748487638911873 -0.287937985310334 0.3895270939658586
-0.85605612094826 -0.3629221015893984 0.3680427501866482
-0.834084351810395 -0.4332804114044472 0.3414255104092627
-0.8096734581334631 -0.4985373691329948 0.3096601084611167
-0.7835156851929692 -0.5584449546710181 0.2724745926854024
-0.7561896217863245 -0.6128788956097282 0.2292525140949492
-0.7280942846312162 -0.6616967632543846 0.1789863296065593
-0.6993693097659597 -0.704568286463648 0.1202750941266034
-0.6697820671565727 -0.7407788063169175 0.05136869306445756
-0.6385624689989573 -0.7689940589414703 -0.02976760821223938
-0.6041990791037791 -0.7869239072976524 -0.1252766416118349
-0.5640998179500833 -0.7910630086441059 -0.236665822931021
-0.5121604448520958 -0.7779906659231789 -0.3638986156408285
-0.4219521981522997 -0.751642007280425 -0.5069424379216001
0 0 0
0 0 0
0 0 0
0 0 0
0 0 0
-0.3829842794389937 0.7217368504947933 -0.5765578551545807
-0.4578579816043119 0.7794578658631001 -0.4275646197072045
-0.5164108641086865 0.8072016596365139 -0.2859113500905068
-0.5581067872077217 0.8137529265005157 -0.162243609071422
-0.5911250983089882 0.8045921389250578 -0.05659159062253519
-0.6200628492275477 0.7838588204673136 0.03297593946207426
-0.6472279739232418 0.7544625915910161 0.1090052643727916
-0.6737713930901078 0.7181498163425619 0.174048703357881
-0.7001819142407115 0.6758042568340474 0.2302908886933934
-0.7265216958217254 0.6277579381499565 0.2794390749162312
-0.7525576009483679 0.5740273337939206 0.3227222913160464
-0.7778386650135186 0.5144952469394586 0.3609177913136065
-0.80174511708052 0.4490639318766223 0.3943936514766065
-0.8235297154924672 0.3777886147569179 0.4231720338833181
-0.8423668438752929 0.30098610503115 0.4470184167545613
-0.857419110573775 0.2193018537962759 0.4655525381140058
-0.8679205683529592 0.1337225999396826 0.4783640384636446
-0.8732657455728194 0.04553437773413185 0.4851119026096066
-0.8730876628160767 -0.04376269484210512 0.4855952631343479
-0.8673095624894325 -0.1325692132142906 0.4797911280152358
-0.8561594480553264 -0.2193158659123994 0.4678584726866582
-0.8401439108568138 -0.3025917796473863 0.45010712496032
-0.819985658444609 -0.3812524898677996 0.4269309767570909
-0.7965378301937843 -0.4544874390849769 0.3987087317631215
-0.7706923483086536 -0.5218304285762663 0.3656860785843542
-0.7432963222472699 -0.5831105579709288 0.3278607242664396
-0.7150797364023098 -0.6383566160113338 0.2848891036550199
-0.6865869430949179 -0.6876724355452786 0.2360190478813093
-0.6580971298423971 -0.7310898836017568 0.1800437440967287
-0.6295146041336156 -0.7683904006704817 0.1152716588756879
-0.6002062248840959 -0.7988681931775723 0.03952337965790226
-0.5687465039200771 -0.8210060975280445 -0.04976346149998071
-0.5324443700472139 -0.8321238820936128 -0.1551542382743059
-0.4863379980453769 -0.8281826611634336 -0.2785477183634206
-0.4222503321251168 -0.8034769257274995 -0.4196778369698764
-0.3419978153457567 -0.7486430508099735 -0.5679534107412902
0 0 0
0 0 0
0 0 0
0 0 0
-0.4105406217007332 0.7625887002540732 -0.4999148649303976
-0.4471242643253207 0.8229954799140892 -0.3503688517726967
-0.4861692457844977 0.8475119623372448 -0.2129857698265415
-0.519545010940392 0.8492202287233097 -0.09432912982783463
-0.5484514297173168 0.8361613609579512 0.005933606152821016
-0.5750316692005938 0.8131091641565461 0.09051003580278191
-0.6007837653757526 0.7827147072397382 0.1625317025430514
-0.6265423064486619 0.7462588919838281 0.224816379218818
-0.6526556286253089 0.7041720987159041 0.2796109543879513
-0.6791187700422571 0.6563925877288348 0.3285520764672406
-0.7056551167790839 0.6026110841752407 0.3727073079410136
-0.7317654921326274 0.5424503269993247 0.4126341082147947
-0.7567624520795999 0.4756144935983259 0.4484433571831326
-0.7798054547381732 0.4020244562299462 0.4798747642391777
-0.7999512160027882 0.3219351426143646 0.5063949209515521
-0.8162276593089197 0.2360185200012194 0.5273212174713962
-0.8277312419755292 0.1453912645036756 0.5419615957461096
-0.8337353907219789 0.05157468980175478 0.5497502611454781
-0.8337899631299935 -0.04361302356738925 0.5503564313778789
-0.8277891593249551 -0.1382168884411751 0.543747367307395
-0.8159915090284 -0.2303310119808867 0.5301938156121916
-0.7989864161737364 -0.3182760997430677 0.5102166511416393
-0.7776157485314663 -0.4007363404382943 0.4844833671943446
-0.7528691398359716 -0.4768319230736738 0.4536732033308841
-0.7257753827681294 -0.546119721418781 0.4183340096684079
-0.6973063814853797 -0.6085309065713165 0.3787531466367735
-0.668299316347061 -0.6642659042030232 0.3348534489644537
-0.6393913551403921 -0.7136653134988236 0.2861127667203232
-0.6109542542931153 -0.7570630142779003 0.2314962020716583
-0.5830123817449995 -0.7946082186733501 0.1693940422470281
-0.5551269882187666 -0.8260222092277311 0.09757733760304869
-0.5262325213628565 -0.8502377450084646 0.01323292949468838
-0.4944517715118117 -0.8648616293955365 -0.08678598762546884
-0.4571814750536289 -0.8653683347369807 -0.2052382617893946
-0.4129635479811489 -0.8438362804692848 -0.3426389350359691
-0.3708283187547126 -0.7868695150713231 -0.4932775326942972
0 0 0
0 0 0
0 0 0
-0.2942243059363625 0.7536549251610464 -0.5877383019480376
-0.373329088731197 0.822038923198088 -0.4299737204230757
-0.4153616198719781 0.8648099691696922 -0.2820965117863772
-0.4475836680721421 0.8815353048451497 -0.1502144013956543
-0.4752089116424698 0.8790849724754183 -0.03723038360629263
-0.5004236753107366 0.863832992961616 0.05804055013066761
-0.5246848077772658 0.8399311583994078 0.1386416302470579
-0.5489429206186006 0.809595479577394 0.2078865780914423
-0.5737352061424511 0.7737257284482257 0.2686566775085643
-0.5992721599122787 0.7324132836563225 0.3231774439496587
-0.6254966942196463 0.6852918169618766 0.3730000149133824
-0.6521160484258216 0.6317764006919601 0.4190504014008372
-0.6786180329586362 0.5712428356125111 0.4616916591240615
-0.7042839891679908 0.5031846300420062 0.5007886686928029
-0.7282124479794319 0.4273638259574909 0.5357861428506507
-0.7493662136911409 0.3439521136069939 0.5658155364811788
-0.7666522747212864 0.2536405552944379 0.5898396039387367
-0.7790337327860316 0.1576884999635465 0.6068284602428495
-0.7856606341628758 0.05788518515576339 0.6159437257300948
-0.7859939241337703 -0.04358453742760208 0.6166959861406737
-0.7798928148371957 -0.1443546025449441 0.6090393633332792
-0.767641544560445 -0.242130527334063 0.5933795301472595
-0.7499083587877311 -0.3349266169415141 0.5704924317503285
-0.727648357472202 -0.4212379926661252 0.5413745666381264
-0.7019763559917023 -0.5001200648672041 0.5070592828711784
-0.6740383538765607 -0.5711742674927456 0.4684359653757398
-0.6449029514069371 -0.6344613095382623 0.426097441867015
-0.6154805136675067 -0.6903714426002535 0.3802249446546429
-0.5864661024009451 -0.7394763496413046 0.3305030091478968
-0.55829413231393 -0.7823708347892649 0.2760498844321148
-0.5310898774174773 -0.8194919413899734 0.2153520376072178
-0.504602741347801 -0.8508807347028978 0.1462123412566129
-0.4781113588404606 -0.875833627720916 0.06576461891433397
-0.4503114817319776 -0.8923903168301808 -0.02931026864563533
-0.4192458499685414 -0.8966841292133758 -0.1420932429815169
-0.3822422755075816 -0.8825538442291458 -0.2738422079430812
-0.3340968567370205 -0.84298259638799 -0.4216155031606467
-0.2490111989663309 -0.7772826877674814 -0.5777759479991441
0 0 0
0 0 0
-0.3233222017532271 0.7841773080016968 -0.5296496044260366
-0.3515263927035755 0.8595648909989395 -0.3709142669065079
-0.3789343493493355 0.8977002367493192 -0.224817801393509
-0.4033824421117141 0.9098141852896048 -0.09757434930247552
-0.4259495077402198 0.9046876901358972 0.01035375161178591
-0.447741507756265 0.888398750120168 0.1013666760679706
-0.4695904615855411 0.8645677057138178 0.178906345959619
-0.4920515768357323 0.8349778309846541 0.2463681543901954
-0.5154414918996081 0.8001949745578208 0.3066073565991428
-0.5398699467092093 0.7600341321052037 0.3617852383324733
-0.5652517721675343 0.7138775142228132 0.4133634342180239
-0.5913026716679143 0.6608959866700256 0.4621446151172156
-0.6175272336544299 0.6002259173797778 0.5083197456333076
-0.6432107689213623 0.5311371778116853 0.5515189979409841
-0.6674278169044826 0.4532085221799743 0.5908825134030956
-0.6890819180610939 0.3665032937067622 0.6251731327427135
-0.7069870039793109 0.2717178265265913 0.6529462450707734
-0.7199917892519679 0.1702595892386045 0.6727729897090481
-0.7271320955764297 0.0642140739613246 0.6834877235824495
-0.7277808623087293 -0.04382040338052454 0.684408349382684
-0.7217566829296163 -0.1510114181367258 0.6754723104900537
-0.7093593359189989 -0.2546264596252656 0.6572478212997431
-0.691321460628861 -0.352341306230824 0.6308171224669906
-0.6686924214339637 -0.4424535215243504 0.5975661693967311
-0.642687833226226 -0.523966912905607 0.5589374054428151
-0.6145416692799742 -0.5965546853097294 0.5161986479579269
-0.5853868365120595 -0.6604362780167337 0.4702618146498891
-0.556174428107863 -0.7162112186083848 0.421558413340765
-0.5276271005233646 -0.7646826095276422 0.3699596592593603
-0.5002139596833807 -0.8066831497171201 0.3147193837378612
-0.4741308892712194 -0.8428929992530164 0.2544234494875354
-0.4492713454114555 -0.8736167572340173 0.1869465690300307
-0.4251768265612098 -0.8984677960929598 0.1094544907219337
-0.4009711357040828 -0.9159028492825778 0.01855044496050515
-0.3753200433049637 -0.9225888544585299 -0.08924500390754217
-0.3465421484047003 -0.9127248045281191 -0.2164300593220836
-0.3133039243210776 -0.8776382831891714 -0.3627556958695148
-0.2789126977562253 -0.8056553451233022 -0.5226157019307751
0 0 0
0 0 0
-0.3051173557977462 0.8250512316705264 -0.4755984275730295
-0.3177422143226873 0.8932803012181399 -0.3179468331229984
-0.3354158305749548 0.9255109222896373 -0.1758571958217732
-0.3537750409141981 0.9337936950906772 -0.05359622594041738
-0.3721322031887355 0.9268472461795147 0.04971725655491284
-0.3907597326123683 0.9102146006988393 0.1371721985074315
-0.4100490918664587 0.8869808657765536 0.2124257187954592
-0.4303060671435024 0.8585255003557919 0.2788739030786637
-0.4517162550962102 0.8251200435421232 0.3393071449688317
-0.4743382615267042 0.786343761047259 0.3958114489423903
-0.4980892373744669 0.7413607391279836 0.4497681248058062
-0.5227189007677998 0.6891182875067233 0.5018774119283548
-0.5477786142250721 0.6285180182778647 0.5521808494485522
-0.5725953638028624 0.5585957703472497 0.600087755833786
-0.5962650320149406 0.4787254548360392 0.6444299422654479
-0.617680696239661 0.3888378364240693 0.6835756684215256
-0.6356103498314307 0.2896171667376948 0.7156265645698153
-0.6488273720459129 0.182618292342498 0.7386972320145133
-0.6562799706807337 0.07024298310826972 0.7512406561198255
-0.6572642719528374 -0.04445844760246249 0.752347740909139
-0.6515542157164792 -0.158141329293765 0.7419355928591672
-0.6394470364744278 -0.2675958096258208 0.7207634634294197
-0.6217104568066226 -0.370138567671621 0.6902706343306954
-0.5994502900457876 -0.4638714184977831 0.6522903163966753
-0.5739403721086144 -0.5477671880211862 0.6087228901488652
-0.5464587880445622 -0.6216005743055248 0.561244616002603
-0.5181614534806901 -0.6857780996007078 0.511094028760677
-0.4900036911493746 -0.7411264435543783 0.4589422374596029
-0.4627043420118095 -0.7886827785909336 0.4048260943139685
-0.436737061852238 -0.8295040801847621 0.3481145210437298
-0.412331380366641 -0.8644863829267909 0.2874823933723484
-0.3894673541744963 -0.8941616408656512 0.2208849022381627
-0.3678540580522841 -0.9184210681069132 0.145554572692935
-0.3468988109496181 -0.9361017345926171 0.05809266265573936
-0.325725989873464 -0.9443830572368683 -0.04520199912500494
-0.303455903636461 -0.9380008411066575 -0.1675378662612764
-0.2803892756644366 -0.9084229147882602 -0.3100800896219768
-0.2618367567972086 -0.8433372842671825 -0.4692800206217735
0 0 0
0 0 0
-0.2562448155262381 0.8661584692521669 -0.429078198768787
-0.2685656853283751 0.9237963737600015 -0.2728969264978464
-0.2835720274741619 0.949358490789756 -0.1352973066974699
-0.2987408716581668 0.9541689206131544 -0.01776407996058643
-0.3140246570604575 0.9459019113505536 0.08159711307044493
-0.3297823877030659 0.9293051919261409 0.1662390959431098
-0.3463430710796525 0.9069164334087428 0.2398938513765606
-0.3639418568266191 0.8797501479750652 0.3059182929924961
-0.3827243222606758 0.8478242264631923 0.367037020165807
-0.4027462179649888 0.8105162718415163 0.4252750368820465
-0.4239555445231266 0.7667991080700474 0.4819552096731382
-0.4461601066936867 0.7154146992030423 0.5377015597515948
-0.4689871773742258 0.655038127350313 0.5924323414331386
-0.4918460350616671 0.5844680935400064 0.645356122949048
-0.5139073589706032 0.5028609799824699 0.6950036411465258
-0.5341180835160874 0.4099966394121622 0.7393379663806227
-0.5512684946629474 0.3065309033144815 0.775977997178564
-0.5641199506884418 0.1941588783872596 0.8025403486296939
-0.5715810704950223 0.0756062568715072 0.8170549392627424
-0.5728965181639685 -0.04560403640389196 0.8183580214913724
-0.5677940811289757 -0.1655893733655353 0.8063436245567464
-0.5565414700461175 -0.2806442101537335 0.7819849227613619
-0.5398937826168226 -0.387723255665144 0.74711804991455
-0.5189530830727693 -0.4847468019266153 0.7040655051848411
-0.4949870417011759 -0.5706819407384131 0.6552174837891279
-0.4692571552498129 -0.6454326870417416 0.6026726879035832
-0.4428901716428235 -0.7096144715965619 0.5479923334891847
-0.4168041816546361 -0.7642920338149222 0.4920690614154262
-0.3916814418892935 -0.8107347493945336 0.43508023881085
-0.3679708039652641 -0.8502104230726236 0.3764833647424901
-0.3458998516763319 -0.883807649984489 0.3150195715176852
-0.3254796179682507 -0.9122537270282887 0.2487089781456174
-0.3064890130825721 -0.9356770233069581 0.1748513451909952
-0.2884375484739436 -0.9532512627749462 0.09008779411391533
-0.2705366120766122 -0.9626642415236848 -0.009354123034074419
-0.2518113918085146 -0.9594030682898739 -0.1270306085612191
-0.2318246093146852 -0.9359499240488321 -0.2650567678612983
-0.2137885507019423 -0.8808101260153239 -0.4224547046697804
0 0 0
-0.0882899171807783 0.8243724483155815 -0.5591198055715648
-0.175056889279302 0.9029486736282137 -0.3924777424375845
-0.2075094266037519 0.9486855668367175 -0.2386116785622147
-0.2256022314089524 0.9686117819953993 -0.1043783931807624
-0.2395299074931637 0.9708402103251501 0.009731877112562921
-0.2523993228661511 0.9617701929191381 0.1062670119509883
-0.2653603466049422 0.9454480999650711 0.1889755982187687
-0.2789271953126866 0.9239726281738306 0.2616757575713536
-0.2933715213821891 0.8980717957222604 0.3277196975619464