# OOMMF: rectangular mesh v1.0
# Segment count: 1
# Begin: Segment
# Begin: Header
# Title: 
# Desc: time = 7.399999999999999e-10
# Desc: stepsize = 8.79457583511135e-14
# Desc: step = 4734
# meshunit: m
# valueunit: (none)
# valuemultiplier: 384000.0000000001
# xmin: 0
# ymin: 0
# zmin: 0
# xmax: 9.357999999999999e-08
# ymax: 9.357999999999999e-08
# zmax: 2.3395e-08
# ValueRangeMaxMag: 1
# ValueRangeMinMag: 0
# meshtype: rectangular
# xbase: 1.16975e-09
# ybase: 1.16975e-09
# zbase: 1.16975e-09
# xstepsize: 2.3395e-09
# ystepsize: 2.3395e-09
# zstepsize: 2.3395e-09
# xnodes: 40
# ynodes: 40
# znodes: 10
# End: Header
# Begin: Data Text
0 0 0
0 0 0
0 0 0
0 0 0
0 0 0
0 0 0
0 0 0
0 0 0
0 0 0
0 0 0
0 0 0
0 0 0
0 0 0
0 0 0
0 0 0
0 0 0
-0.8478943825551901 0.01541472793048014 -0.5299410365259343
-0.8567432213036537 0.0314508595187553 -0.5147833487844857
-0.8658151785550967 0.01028207342124387 -0.5002582888366423
-0.8696948467438024 -0.02624632929440691 -0.4928914725838163
-0.8667162545530585 -0.0670402179616615 -0.4942757765348917
-0.8570436041849226 -0.1035115927148926 -0.5047391511457606
-0.8427948009370309 -0.1244188101836319 -0.523657219167271
-0.8303688068587168 -0.1071146925075338 -0.5468218057512403
0 0 0
0 0 0
0 0 0
0 0 0
0 0 0
0 0 0
0 0 0
0 0 0
0 0 0
0 0 0
0 0 0
0 0 0
0 0 0
0 0 0
0 0 0
0 0 0
0 0 0
0 0 0
0 0 0
0 0 0
0 0 0
0 0 0
0 0 0
0 0 0
0 0 0
0 0 0
0 0 0
0 0 0
-0.7961541630216157 0.234455407352699 -0.5578254302794288
-0.8232936096578991 0.2610848016314289 -0.5040063081485624
-0.859004314876982 0.2413230794838447 -0.451524925481595
-0.894015332195464 0.1910535034996486 -0.4052593547346479
-0.9240915693658374 0.1075695704876493 -0.3667200007254662
-0.9359815147531718 0.06489104865373248 -0.3460169877982529
-0.9428998545152651 0.02407638002091828 -0.3322050455369083
-0.945270071521785 -0.02042563929776411 -0.3256490214087496
-0.9426018230720369 -0.06652402464231896 -0.3272252393790245
-0.9349560470868689 -0.1108383708821751 -0.337004518598611
-0.9228768406687439 -0.1512185058029487 -0.354162816314758
-0.9055565084973345 -0.19301369772705 -0.377773903820588
-0.8673699114967353 -0.2746653873446084 -0.4150040501308164
-0.8251537507151289 -0.3241869316593533 -0.4626274105822613
-0.7833341666984214 -0.343225862617858 -0.5182505094190608
-0.7521134797679006 -0.3151967746570078 -0.5787713769678304
0 0 0
0 0 0
0 0 0
0 0 0
0 0 0
0 0 0
0 0 0
0 0 0
0 0 0
0 0 0
0 0 0
0 0 0
0 0 0
0 0 0
0 0 0
0 0 0
0 0 0
0 0 0
0 0 0
0 0 0
0 0 0
0 0 0
-0.7686086611670722 0.3332998075625535 -0.5460329333087198
-0.8055443933457647 0.3585015354838972 -0.4717784219364968
-0.859339968214294 0.3187212873067441 -0.3999394454751711
-0.8922755599857192 0.2948751327701217 -0.3418961554711807
-0.9211771293379588 0.2592299651173199 -0.2902283955266093
-0.9465708121554127 0.2082564950846183 -0.246237547564363
-0.9662946135243489 0.145216689771349 -0.2125719475511303
-0.9773458519447342 0.0898567639462072 -0.191626844830093
-0.983145630107198 0.03745657704645651 -0.1789460109560504
-0.9847362501059223 -0.01494826927268441 -0.1734101120842642
-0.9822432923923923 -0.06753940958088561 -0.175032976046281
-0.9756647409063389 -0.1195861815451007 -0.1837864481827431
-0.9648055775541765 -0.1712675616275405 -0.1995435287211985
-0.9483392214184663 -0.2255380195863654 -0.2231262486586391
-0.9223343024647479 -0.2871715966231033 -0.2585186813168516
-0.8908445256123866 -0.3368853192839172 -0.3048020879807328
-0.8562688845602129 -0.3712054081594665 -0.3591798188751308
-0.8179168275763046 -0.3934586105140141 -0.4197646780994018
-0.7573525020053538 -0.4307809813774294 -0.4907595478334868
-0.715813610839717 -0.4038303976389375 -0.5696770001319899
0 0 0
0 0 0
0 0 0
0 0 0
0 0 0
0 0 0
0 0 0
0 0 0
0 0 0
0 0 0
0 0 0
0 0 0
0 0 0
0 0 0
0 0 0
0 0 0
0 0 0
0 0 0
0 0 0
-0.7704004460775611 0.4159941360393962 -0.4831480430099355
-0.8205219212579429 0.4126255866256933 -0.3955804621021821
-0.8593522567934544 0.3997995052116066 -0.3188636924714866
-0.8963207810316312 0.3658036479952204 -0.250592794398073
-0.9248727917493662 0.3270068764611616 -0.1941051823853433
-0.9484627150151941 0.2810632835482783 -0.1463622521932006
-0.968028754712069 0.2268075134417236 -0.1071386106731969
-0.9829961760640321 0.1664413110100872 -0.07756163892500648
-0.9926328589686075 0.1063542655259809 -0.05804117073454703
-0.9977967031784981 0.04730423698749209 -0.04651933242374275
-0.9990625621971267 -0.01129128515171307 -0.04179119160461909
-0.9966243698116286 -0.0696469504611137 -0.04346455784936248
-0.9904735086342401 -0.1277118524997858 -0.05149671275771062
-0.9803716405771006 -0.1857181410207814 -0.06618321877899819
-0.9656439307835144 -0.2442918696745174 -0.08861874153863443
-0.9453692470389647 -0.3027837889053041 -0.1208261723681107
-0.9205986370882544 -0.3549985974529195 -0.1627087741878352
-0.8919586773087143 -0.3987761900921479 -0.2130428787574924
-0.8582859138405514 -0.4353332513779007 -0.2717172249741159
-0.8156677882958943 -0.4670926792726418 -0.3413363269656315
-0.7714508659754972 -0.4778833278937421 -0.4201084220851291
-0.7158677045586957 -0.4780437212440735 -0.5089279223514678
0 0 0
0 0 0
0 0 0
0 0 0
0 0 0
0 0 0
0 0 0
0 0 0
0 0 0
0 0 0
0 0 0
0 0 0
0 0 0
0 0 0
0 0 0
0 0 0
-0.6651967131472014 0.5100963958841511 -0.545265989883982
-0.7157418211594436 0.5422586880024061 -0.4400785847201285
-0.7941649648307415 0.5048519734614882 -0.3382698531164537
-0.8426117984761459 0.4754657427768511 -0.2528590210264433
-0.8783618162091684 0.4428075903315579 -0.1800054381692111
-0.9082728767420571 0.4015075979879887 -0.117609651528363
-0.9327921108534933 0.3543627982577957 -0.06577146144330445
-0.9531198202500316 0.3017220140885438 -0.02294415962503856
-0.9697864516269534 0.243683563864131 0.01151342448092223
-0.9826612018966945 0.1815846407524474 0.03746972817819639
-0.9914785659581079 0.1180416523005707 0.05510373460850014
-0.9963725046983936 0.05431617475145183 0.0655101903631711
-0.9975315846761147 -0.009246995943184112 0.06960769095139979
-0.9950568400911508 -0.07252213214655698 0.0678411772946966
-0.9889584202584325 -0.1353917687530593 0.06025207012097608
-0.9791490804711858 -0.197755073353703 0.0464758988649174
-0.9654488925668155 -0.2593261202911448 0.02565929025229498
-0.9477644729627343 -0.3189542150292828 -0.003272996291438484
-0.9264707159192783 -0.3741768726394255 -0.04054233004895799
-0.9016749755199066 -0.4237862906954384 -0.08595009214524769
-0.8726634013924975 -0.467824901024346 -0.139994463646378
-0.8379648692102546 -0.5061127049726891 -0.2041195919912336
-0.7970288217443535 -0.5359738658694509 -0.2783470359349325
-0.7423680620765151 -0.5625378365870164 -0.3639242267516109
-0.6556811608524019 -0.5967927385502138 -0.4625155592161005
-0.5992552712196857 -0.5624894482140674 -0.5696479092942009
0 0 0
0 0 0
0 0 0
0 0 0
0 0 0
0 0 0
0 0 0
0 0 0
0 0 0
0 0 0
0 0 0
0 0 0
0 0 0
-0.6415778665816503 0.5584039360276881 -0.5258924655681265
-0.7037085091064684 0.5788337317369655 -0.4120022393320323
-0.7540216284526864 0.5811260350793933 -0.3061762812146982
-0.8046292735416024 0.5556074696676279 -0.2094566108038818
-0.844294725298723 0.5203233551541728 -0.1281796509351528
-0.875860168584108 0.4787747169552204 -0.06036336216833782
-0.9022748440985963 0.4311456978208811 -0.003673276112494173
-0.924637038998501 0.3783925641528765 0.04319043303666936
-0.9435586801359445 0.3210139919863236 0.08152934495700384
-0.9592401121528448 0.259403258638351 0.1121086822900077
-0.9715488217300894 0.1944466864265276 0.1352160239491521
-0.980244674679843 0.127534628520673 0.1511796821332209
-0.9852006327225832 0.05976032622375053 0.1606499819254646
-0.9863848902164012 -0.008210036654664528 0.1642481161258985
-0.9838091972977662 -0.07594042551387653 0.1623345776016179
-0.9775078577300398 -0.1430629634238785 0.1549560472276116
-0.967536851377227 -0.2091737252067735 0.1418407343119824
-0.9539961168051662 -0.2736778198552298 0.122441251381842
-0.9370840223142738 -0.3356007046426155 0.09615457434090659
-0.9170961360212643 -0.3937084147397942 0.06267664204426072
-0.8941301122414209 -0.4472782665748108 0.02175993182378369
-0.8678424363770391 -0.4960883610634312 -0.02731013805462755
-0.8373942715848527 -0.5398225104721857 -0.08580495967238895
-0.8014094837813999 -0.5776828476838607 -0.15500118321192
-0.7564813330442282 -0.6095633921182229 -0.2369988686575367
-0.6994558278392898 -0.6320540017580935 -0.3335705079338293
-0.6427708050630504 -0.6272433473060631 -0.4397857153420091
-0.5744720579367175 -0.6035834064598968 -0.5528733363947108
0 0 0
0 0 0
0 0 0
0 0 0
0 0 0
0 0 0
0 0 0
0 0 0
0 0 0
0 0 0
0 0 0
-0.5968733074847437 0.6057665492995067 -0.5261075389708744
-0.6643593774016023 0.6301891660859552 -0.4018559849080799
-0.7166055279013789 0.6353071645213147 -0.2878564296469206
-0.7595828855916422 0.6232318370268785 -0.1860535332434622
-0.7981814895684815 0.5945956423509561 -0.09675914327593906
-0.8312703301244689 0.555449246513287 -0.02158177014467367
-0.8596371222535349 0.5092660695986299 0.04089117752307651
-0.8843795956635323 0.45746610466606 0.09272267174573783
-0.9060662217961646 0.4008489517262844 0.1355142782881634
-0.9248864576875063 0.3398829218555785 0.1704835470571008
-0.9407577308164501 0.2749905442668133 0.1983811797346834
-0.953411787474908 0.2068454067887713 0.219592671085098
-0.9625180562640221 0.1364049376835287 0.2344198889626918
-0.9678067601699026 0.06463419965404466 0.2432539726387156
-0.9691172960465974 -0.007645865377360501 0.2464816570172359
-0.9664006096548664 -0.07974260462911976 0.2443582997683235
-0.9597131475431437 -0.1510215197737288 0.2369455106096434
-0.9492150443444265 -0.2208335525636157 0.2241056484168586
-0.9351715963206385 -0.2884481856824361 0.2055522551849504
-0.9179406837807111 -0.3530381055748634 0.1809668397036082
-0.8979018346416278 -0.4138183833967643 0.1500887767625771
-0.8753001871915824 -0.4702998065895035 0.1125507628772697
-0.8501120168068647 -0.5222449356158523 0.06760019307782091
-0.8219629390028541 -0.5693689306808024 0.01399813134633616
-0.7900234423273066 -0.6110442247450388 -0.04987901341292518
-0.7528506108243161 -0.6460044707307631 -0.1260721284714437
-0.7093721817633428 -0.6709254182815297 -0.2159865524611868
-0.6607767520353116 -0.679826041407431 -0.31813619315313
-0.6020274016668797 -0.6717774013631014 -0.4315995026179517
-0.5278204620497193 -0.6439377471000538 -0.5538499234461689
0 0 0
0 0 0
0 0 0
0 0 0
0 0 0
0 0 0
0 0 0
0 0 0
0 0 0
-0.5515871971934627 0.6313878646279097 -0.5450696545331321
-0.6157559996812314 0.6717268164757334 -0.4118587535599346
-0.667439902590982 0.6868183829155393 -0.2877576850730894
-0.7097939792853445 0.681654957377911 -0.1775923029086377
-0.7458947834413334 0.6609989426262807 -0.08198396112621213
-0.7782394614769635 0.6279676265308697 -2.508448493129053e-05
-0.8074807835097078 0.5858426655737752 0.06901561747866493
-0.834056485244297 0.5369316754215049 0.1267049933940438
-0.8582871535026884 0.4824724693659108 0.1748241357370669
-0.8802406975448331 0.4231133794848075 0.2148287282621442
-0.8997549245540807 0.3592483299162567 0.2477533313460396
-0.9164971259218384 0.2912707211954862 0.2742159462016584
-0.9300311356701613 0.2197644039303214 0.2945262186108729
-0.9399016663448064 0.1455495497860377 0.3088692055860167
-0.9457235279244931 0.06957447521716566 0.3174372396684196
-0.9472432687615724 -0.007196704886825055 0.3204347004065929
-0.944367942854208 -0.08383320461579759 0.3180270150681487
-0.9371726943836585 -0.1594398450258834 0.3103003008696505
-0.9258962271647814 -0.2331464276863792 0.2972522830511194
-0.9109227232919623 -0.3041078570237322 0.2788157159967631
-0.8927392796711382 -0.3715448399761236 0.2548941160940627
-0.8718566202018833 -0.4348376563904063 0.2253491655077671
-0.8487038944687082 -0.4936101190897122 0.1898703500968155
-0.8235384230102992 -0.5476674999951564 0.1477997810376055
-0.7963785887683145 -0.5967999281988601 0.09803565194980184
-0.766941702655501 -0.6405277257146292 0.03904686054889845
-0.7346207965036493 -0.6777690102075862 -0.03100732407951755
-0.6986578978839383 -0.7063597099431027 -0.1137237965137077
-0.6580974671008771 -0.7231141057254779 -0.2097944563048597
-0.610090979809614 -0.7248969191681435 -0.3198647416260174
-0.5515977664559039 -0.7067338374613538 -0.4430205266440891
-0.4806224839350255 -0.6628391149455641 -0.5741483568158204
0 0 0
0 0 0
0 0 0
0 0 0
0 0 0
0 0 0
0 0 0
0 0 0
-0.5814806134013744 0.6857807257672877 -0.4377043435978826
-0.615937509477902 0.7262017164840621 -0.3053719885545503
-0.65377688518021 0.7335535442397775 -0.1856743981741227
-0.6882059609030035 0.7208896038416471 -0.08179690978641013
-0.7193088023076342 0.6946555720303188 0.006962985709216549
-0.7481902649050898 0.6583454122677136 0.08241750813574218
-0.7754612320184556 0.6142115117700212 0.1463013890761239
-0.8013386730568161 0.5636704359341161 0.2003296551122284
-0.825778526914357 0.5074974699732732 0.2460409365489421
-0.8485254571733821 0.4460947382232262 0.2846120746880802
-0.8691555299784468 0.3797358062444318 0.3168112721539055
-0.887125607772859 0.3087633477086583 0.3430354954598384
-0.9018314057789005 0.2337301973176256 0.3634147911308995
-0.912680520382077 0.1554469890197704 0.3779556869790265
-0.9191729269439355 0.07493388290066043 0.3866601137520499
-0.9209702993521723 -0.006668291748483916 0.3895757199779352
-0.9179401843357665 -0.08817722047990101 0.3867952892294026
-0.9101734674681682 -0.1684287779911433 0.3784389063790625
-0.897976653394819 -0.2463246983408212 0.364639648070727
-0.8818392143841998 -0.3208830269196617 0.3455339100712579
-0.8623744188165697 -0.3912981578895971 0.3212415188032065
-0.8402376257042463 -0.4570017509461341 0.2918049553778306
-0.8160383595970393 -0.5176816922491516 0.2570740383162553
-0.7902663325541973 -0.5732136867773878 0.2165760672891003
-0.7632335297461923 -0.6235122986181362 0.1694313800424692
-0.7350210508515539 -0.6683343709579789 0.1143381974725837
-0.7054285142178087 -0.707040357245374 0.04964417946535354
-0.6739214408807376 -0.7383296627264918 -0.02644240267855392
-0.6395011353203388 -0.7600396010704296 -0.1156637485502669
-0.6006377433810975 -0.7687261165402228 -0.219760003128526
-0.5571027511352112 -0.7578954790601242 -0.3394568713368508
-0.5168022620720748 -0.7139872742997357 -0.4723744214658743
0 0 0
0 0 0
0 0 0
0 0 0
0 0 0
0 0 0
0 0 0
-0.4597107003239478 0.7445650327028809 -0.4840340732673916
-0.5431518596535219 0.7688370978158143 -0.3374545515726171
-0.5890112027320217 0.7807108957166288 -0.2087014622984603
-0.62424384334163 0.7752860857408732 -0.09618268714620747
-0.6548593286727882 0.7557506920921919 0.0003886545987212832
-0.6831109553520702 0.7256227216470666 0.0826503993183635
-0.7101723232129074 0.6872444191458532 0.1528083102951535
-0.7365681258696998 0.6419822421433348 0.2128994991196884
-0.7623784808687311 0.5905550998176693 0.2646199652097854
-0.7873796062478167 0.5332777081382248 0.3092704991878055
-0.8111290982186726 0.4702730645137084 0.3477252231516255
-0.8330234295623246 0.4016600570606864 0.3804486356424848
-0.8523496054662177 0.3277123526939848 0.407559521976061
-0.8683457916535063 0.2489734130758588 0.4289380208130334
-0.8802769567122052 0.1663056499738284 0.4443589880583943
-0.8875213898865296 0.0808629213017613 0.4536154433575065
-0.8896515300160333 -0.005990988661130927 0.4566007700332889
-0.8864927013888867 -0.09278912182283233 0.4533440958649195
-0.8781487553653357 -0.1780705021381256 0.4440108779282178
-0.8649915271080584 -0.2604835845186167 0.4288798902112351
-0.8476152649606755 -0.3388772976849427 0.4083020202244827
-0.8267627507744512 -0.4123747918764014 0.3826360999131638
-0.8032356847381978 -0.4804143885646298 0.3521568542897198
-0.7778070414759808 -0.5427389802629423 0.3169394351189556
-0.7511487140501575 -0.5993212163094466 0.2767484219686885
-0.7237738365919107 -0.6502381395326491 0.2309584277789936
-0.6959817003966799 -0.6955145034663491 0.1785190415079106
-0.6677891022287482 -0.7349435613552832 0.1179647259435426
-0.638827501899041 -0.7678838906504357 0.04747371164107494
-0.6081843788429848 -0.793021646468114 -0.03504895953339866
-0.5742026121211401 -0.8080395689504468 -0.1317703124517614
-0.5341465390906037 -0.8093691626470719 -0.2441496126015908
-0.4817348026535687 -0.7934903575340415 -0.3718933078354941
-0.3900404723727818 -0.7641747115659588 -0.5137172764413325
0 0 0
0 0 0
0 0 0
0 0 0
0 0 0
-0.3820923598030965 0.7446716246899381 -0.547238156529448
-0.4554714327019707 0.7976202414922876 -0.3954083008160026
-0.5124184840477608 0.8209203188044062 -0.2520260450434957
-0.5527857624072835 0.8235480700500309 -0.1272653809826819
-0.5847374757142345 0.810957165285496 -0.02074995343265445
-0.6128331672221211 0.7871306139654958 0.06972019586034656
-0.6393406505019769 0.7547724001979936 0.1468405819760597
-0.6653664914776418 0.715421189480771 0.2132133993459398
-0.6913489912722157 0.6697755310549964 0.2709931922888225
-0.7172889130479818 0.6180184478818986 0.3217915680935298
-0.7428767397770691 0.5600663187503924 0.3666876983204861
-0.7675703606765263 0.4957646046648894 0.4062673973780971
-0.7906494969675991 0.4250556940664559 0.4406824592453902
-0.8112688267845215 0.3481233194977589 0.4697372085640298
-0.828523797591464 0.2655037409492574 0.4930071808468594
-0.8415366895626228 0.1781401080262929 0.5099824526710326
-0.8495569641899515 0.08736531831560007 0.5202117508783962
-0.8520601356399211 -0.005186019881774008 0.5234182175383894
-0.8488231674284621 -0.09771542963477563 0.5195680179225848
-0.8399596786974768 -0.1884234355248634 0.508885396830601
-0.8259064071477755 -0.2756684303072956 0.4918185876562248
-0.8073644216100613 -0.3580996787300305 0.4689640826456751
-0.7852077745598969 -0.434744198674418 0.4409605792921081
-0.7603795119378447 -0.5050367492955525 0.4083636610744712
-0.7337947739916865 -0.5687870529938708 0.3715192027460184
-0.7062630141414775 -0.6260934414880477 0.3304535631241507
-0.6784280979332092 -0.6772202887517468 0.2847946566172336
-0.6507141872632836 -0.7224577255228256 0.2337218032761804
-0.6232594750874473 -0.7619668676163542 0.1759378281343732
-0.5958164557615525 -0.7955992385044581 0.1096567496092588
-0.5675950333889246 -0.8226613997986018 0.03262053576552981
-0.5370088110532336 -0.8415960834337615 -0.05777169895497997
-0.5011996255036941 -0.8496397481156424 -0.1640464379891987
-0.4550238323547721 -0.8426480909973409 -0.287919271198912
-0.3901315471898819 -0.8148584565065429 -0.4287226046606393
-0.3085806043889518 -0.7571187093338034 -0.5758031526239368
0 0 0
0 0 0
0 0 0
0 0 0
-0.4052842941387059 0.7842149546554471 -0.4698420434776405
-0.4408018995761748 0.8395368168658481 -0.3176029257686315
-0.4785291700670032 0.8596860758998409 -0.1787447462134689
-0.510684409573587 0.8577336460064949 -0.05911367292666624
-0.5385404188737857 0.8415483897124784 0.0420776070087337
-0.5642336984201405 0.8156652159675118 0.1277911930760554
-0.58923583297677 0.7824898664099278 0.2012728051723456
-0.6143481318897153 0.7430767668494731 0.2653550289935169
-0.6398782313293876 0.6976589969826531 0.3222231726613289
-0.6657678636251266 0.6460150417619117 0.3733868203102376
-0.6916700779232263 0.5877253776585338 0.4197277495732335
-0.7169972401378505 0.5223698578533913 0.4615676431910418
-0.7409605450861141 0.449697526088404 0.4987480382474274
-0.7626173954597942 0.3697801908150028 0.5307328128380032
-0.780941259857065 0.2831366916557118 0.5567444319354418
-0.7949188645157729 0.1908039406150644 0.5759321618756126
-0.8036693891422471 0.09432709399047493 0.5875524762053504
-0.8065653599187164 -0.004340071901351471 0.5911289909614331
-0.8033289854732822 -0.1030143865999439 0.5865582471092736
-0.7940784821190211 -0.1995064417095912 0.5741398296163824
-0.7793124596222356 -0.2918439596953847 0.5545260980935518
-0.7598362614088034 -0.3784495029516988 0.5286064978449508
-0.7366502074125179 -0.4582445493757262 0.4973513897502765
-0.710826187860416 -0.5306682088555509 0.4616463828103384
-0.6833969767591352 -0.5956213189967829 0.4221419388227212
-0.6552711023153073 -0.6533569455306333 0.3791364981076906
-0.627172692625009 -0.704344908082023 0.332494607602021
-0.5995947844372246 -0.7491275173847153 0.2815920048096009
-0.572749369274225 -0.7881694384475174 0.2252711616991877
-0.5464958141338246 -0.8216830547319195 0.1618001319549189
-0.5202300464298728 -0.8493921187060913 0.08884665143689516
-0.4927218172176551 -0.8701797110083095 0.003532900681573299
-0.4619310301516307 -0.8815634601001618 -0.09729125962429989
-0.425106799082451 -0.8789173048893731 -0.2163066816810635
-0.3807222002996575 -0.8542809450989048 -0.3539133693997847
-0.3380050569906616 -0.794428472066543 -0.5046146888654323
0 0 0
0 0 0
0 0 0
-0.286975585377761 0.7776964852889091 -0.5593149293254812
-0.3646701176365935 0.8414165225168754 -0.3987905978562192
-0.4054507426961013 0.8795467019987544 -0.2490126387360561
-0.4364113861013733 0.8922469968638378 -0.1159327333781967
-0.4628277067058795 0.8864460198587281 -0.001991929214366233
-0.4869187546395743 0.8683347132406652 0.09436605407400044
-0.5101439418557835 0.8418057373108342 0.1763980136464273
-0.5334433421111426 0.8088141770528053 0.2475031873647031
-0.5573362295659737 0.7700209698605333 0.310554396504424
-0.582005575684252 0.7253077242389949 0.36769309897208
-0.6073522830897529 0.6741340223602683 0.4203171708627059
-0.6330223163973903 0.615790603768451 0.4691318356852029
-0.6584218629725308 0.5496008712721179 0.5142173982438848
-0.6827349311240197 0.4751061172835088 0.5551100711956759
-0.7049601262997617 0.3922423240790521 0.5909121588937625
-0.723978862613347 0.3014950007519195 0.6204477181928256
-0.7386621866844281 0.2039966665857126 0.6424667571045962
-0.7480080337643593 0.1015304268773121 0.65587769732023
-0.7512869997961907 -0.00358655455618491 0.6599658934851508
-0.7481615985797651 -0.1087308117056478 0.6545470441430479
-0.7387466732915141 -0.2112702537695372 0.6400142440390494
-0.7235922481458307 -0.3088614207776992 0.6172672688377727
-0.703595065744855 -0.3996807171668738 0.5875451538260407
-0.6798644506887334 -0.4825453300347106 0.5522085956877153
-0.6535778424810571 -0.5569189050464557 0.5125205722892133
-0.6258552230046914 -0.6228232762046663 0.4694639565029818
-0.5976680747609996 -0.6806955892883398 0.4236111272557405
-0.5697822508447713 -0.7312255415733599 0.3750431894769076
-0.5427235580189057 -0.7751959043040016 0.3232993187768879
-0.5167496342806128 -0.8133269828182135 0.2673369306524512
-0.4918116904271959 -0.8461062290677706 0.2054884675398135
-0.4674917272186409 -0.8735622572372761 0.1354269829563005
-0.442907671526264 -0.8949277440242865 0.05419527173825493
-0.4166020723927061 -0.9081384044830241 -0.04156141938299212
-0.3864811079751486 -0.9091992235066246 -0.1548842314545025
-0.3497769004228846 -0.8918239879712413 -0.286890387447245
-0.3012343692191479 -0.8489012751615751 -0.4343091984176635
-0.2148198150999772 -0.779626044785241 -0.5882479726551828
0 0 0
0 0 0
-0.3118583422647195 0.8070156346772493 -0.5014679847671003
-0.3392710978051154 0.8772188396649405 -0.3396795983438019
-0.3655640233003426 0.9107958618078316 -0.1918693383065553
-0.3887680501186249 0.9191430191224101 -0.06352569248345447
-0.4100480181357474 0.9109320448257224 0.0454250209969475
-0.4305453251579566 0.8919989304462815 0.1377266534383182
-0.4511052070959672 0.8656866578554971 0.2170039228721071
-0.4722866512680059 0.8335099360114673 0.2867167689623541
-0.4944027198613114 0.7957879263741892 0.3496963351692509
-0.5175493691786383 0.752114050817777 0.4080038051602795
-0.5416123815215697 0.7016811351122966 0.4629250617649169
-0.5662589818975839 0.6435194470999671 0.5150082393753173
-0.5909244061486737 0.5767019868459775 0.5641127232971607
-0.6148085887114096 0.5005486287585025 0.6094763896121546
-0.6368975856933847 0.4148375399531088 0.6498240383239063
-0.6560258110658376 0.3200011770748845 0.6835417923478402
-0.6709858955095349 0.2172635388067489 0.7089248780600347
-0.6806808381795867 0.1086618233554277 0.7244765038841553
-0.684291722884832 -0.003085736248858119 0.7292018350382217
-0.6814209247445739 -0.114866903447053 0.7228216362372769
-0.6721674758587097 -0.2235592263685479 0.7058414529504672
-0.6571112006962327 -0.3264162738862358 0.6794536673400038
-0.6372109316821456 -0.4213576179959115 0.6453061182892836
-0.6136502917420708 -0.5071080442825543 0.6052063704793549
-0.5876736344080925 -0.5831819867477547 0.560837293476927
-0.5604482598921825 -0.6497545343457981 0.5135336338360901
-0.5329700909936156 -0.7074730809129183 0.4641386882062729
-0.50601255689062 -0.7572592932738753 0.4129281475261369
-0.4801057662080126 -0.800127231796139 0.35957595330064
-0.4555291915961613 -0.8370210117547678 0.3031319539157358
-0.4323011237107705 -0.8686507050248704 0.2419952294947153
-0.4101516665964565 -0.8952873644199011 0.1738854378555474
-0.3884716040526329 -0.9164613876990787 0.09585581725410752
-0.3662454508384215 -0.930507635994089 0.004450741157696446
-0.3420153751826672 -0.9339440609830998 -0.1037977557226309
-0.3140056972825888 -0.9208189621116714 -0.2312852375091389
-0.2808399599245588 -0.8823694951961749 -0.3775619033440991
-0.2458928282262649 -0.8070387413860244 -0.5368660791379443
0 0 0
0 0 0
-0.2902515605546258 0.8459747907770924 -0.447303794937242
-0.3022122640775557 0.9090428355264207 -0.2868952258564121
-0.3187865775103181 0.9369307632117863 -0.143303394749172
-0.3358233056778555 0.9417127053765432 -0.01999719720333117
-0.3527219964464393 0.9319115425103141 0.08442789917369918
-0.3697923251709485 0.9127962169337555 0.1733686897801539
-0.3874459544281216 0.8871677661106977 0.2506371623910456
-0.4060022329689569 0.8561360053203351 0.3196769106744486
-0.4256544493040343 0.8197214495604179 0.3832427884751989
-0.4464596296582741 0.7772720952167188 0.4433078942256817
-0.4683198985412939 0.7277482317236682 0.5010578647754622
-0.490952672769298 0.6699414282398941 0.5569056974287232
-0.5138590746308834 0.6026800043213856 0.6105126237930433
-0.5363023551590973 0.5250547281959527 0.6608307773173696
-0.5573140950344853 0.4366682914932701 0.7062023808231184
-0.5757441189879152 0.3378826119603116 0.744549561806134
-0.5903666095124677 0.2300033469318671 0.7736702959096283
-0.6000373224630757 0.1153286546097637 0.7916151293887983
-0.6038770424766458 -0.002999737960227056 0.7970718406403707
-0.6014338222466612 -0.1213474407464652 0.7896531872170554
-0.5927741734496808 -0.2360717663097839 0.769992792461349
-0.5784712074412816 -0.3440064776732861 0.7396151739115714
-0.5594960785094133 -0.4428177936547794 0.700625820074668
-0.5370498716065017 -0.5311574342294439 0.6553237485931921
-0.5123869064406863 -0.608619754026309 0.6058396265655609
-0.4866695646569354 -0.6755609466794589 0.5538683437046945
-0.4608745954297797 -0.732858548403007 0.5005126924665083
-0.4357488915621443 -0.7816718009208022 0.4462197879381772
-0.4118008172877067 -0.8232367077816436 0.3907702775826442
-0.3893081498852913 -0.8586970227272257 0.3332845444845729
-0.3683259487561208 -0.8889502381451753 0.2722195246020002
-0.3486808886021239 -0.9144675820342022 0.2053550080522811
-0.3299460164118359 -0.9350339498511363 0.1297965287661519
-0.3114066630520013 -0.9493448719885629 0.04207379512042774
-0.2920805272944986 -0.9544131018773033 -0.06151907460545219
-0.2710065801330892 -0.9448054089044307 -0.1841145644143842
-0.2484523511136162 -0.9118757276634978 -0.3267324387389202
-0.2297831852267113 -0.8433647245392093 -0.4857320549335506
0 0 0
0 0 0
-0.2385945752082728 0.8847025441074868 -0.4004672734830194
-0.2501251642871873 0.9374531558848953 -0.2421135739931929
-0.2639030162304233 0.9590006978987327 -0.1033095322524887
-0.2775765077832341 0.9605833902763254 0.01519317781453009
-0.2911540847800093 0.9496501966281427 0.1157315987967176
-0.3050216928485027 0.9306731803434188 0.2020128666231412
-0.3195288751301398 0.9059120450501346 0.277893261147423
-0.3349294644203148 0.8761159540492457 0.3467608526398282
-0.3513843225492678 0.8410507831154461 0.4112938585579491
-0.3689581635212335 0.7998558751137493 0.4733924931988848
-0.3875982539157511 0.7512893283145097 0.5341647112288429
-0.4070998723789481 0.6939260535378649 0.5939160935101926
-0.4270659819481682 0.6263632069016801 0.6521378536034304
-0.4468748248677544 0.547465078214751 0.7075202322440892
-0.465670891856467 0.4566533125593705 0.7580358649867139
-0.4823994552621073 0.3542072865143047 0.8011416627182703
-0.4958981113798251 0.2415032176403871 0.8341230478767875
-0.5050471854236277 0.1210931136632926 0.8545547368770476
-0.5089546764621816 -0.003456648859613887 0.8607863781949251
-0.5071293567416261 -0.1279854690661136 0.8523142232995709
-0.4995842434695069 -0.248328601575065 0.8299087234851629
-0.4868344642953586 -0.360909078542304 0.7954475730052833
-0.4697915957841968 -0.4631586139707486 0.7515184327980466
-0.4495950398908868 -0.5536819469714875 0.7009283855740002
-0.4274333967398195 -0.6321777967220371 0.6462599513223222
-0.4044003227913618 -0.6992015279709405 0.5895571237881395
-0.3814045187546361 -0.7558672050427396 0.5321610295901239
-0.3591322888980779 -0.803566791432078 0.4746624177016567
-0.3380463893837173 -0.8437423806241889 0.4169213759970311
-0.3184022033865364 -0.8777136775664374 0.3581043661998526
-0.3002631417768434 -0.9065350538021303 0.2967090189365119
-0.2835020316774954 -0.9308413951048381 0.230566465892181
-0.2677792955304683 -0.9506283354259393 0.1568439248760153
-0.2525000671472789 -0.9649061916004874 0.07210934406623275
-0.2367834740773276 -0.9711756369036347 -0.02741292922491741
-0.2195792589070227 -0.9647297479044274 -0.1451945679634808
-0.2004049498257231 -0.9378981027155961 -0.283169569353477
-0.1824757668853207 -0.8791842502461398 -0.4401563910915602
0 0 0
-0.07013346448364621 0.844400526763901 -0.5311017299542216
-0.1552418653785784 0.9186775066910122 -0.3632239005541399
-0.1864286284502975 0.9601503937444265 -0.2082200467932019
-0.2030802814105554 0.9764265408305737 -0.07314102585997172
-0.2152968319056316 0.9756519449510853 0.0418396520607194
-0.2261754267937393 0.9640350468065345 0.1395747285270219
-0.2368772778097018 0.9453624161554461 0.2240068244009586
-0.2479355656159396 0.9214652484023511 0.2990480752144994