# OOMMF: rectangular mesh v1.0
# Segment count: 1
# Begin: Segment
# Begin: Header
# Title: 
# Desc: time = 1.76e-09
# Desc: stepsize = 8.88091780434671e-14
# Desc: step = 11262
# meshunit: m
# valueunit: (none)
# valuemultiplier: 384000.0000000001
# xmin: 0
# ymin: 0
# zmin: 0
# xmax: 9.357999999999999e-08
# ymax: 9.357999999999999e-08
# zmax: 2.3395e-08
# ValueRangeMaxMag: 1
# ValueRangeMinMag: 0
# meshtype: rectangular
# xbase: 1.16975e-09
# ybase: 1.16975e-09
# zbase: 1.16975e-09
# xstepsize: 2.3395e-09
# ystepsize: 2.3395e-09
# zstepsize: 2.3395e-09
# xnodes: 40
# ynodes: 40
# znodes: 10
# End: Header
# Begin: Data Text
0 0 0
0 0 0
0 0 0
0 0 0
0 0 0
0 0 0
0 0 0
0 0 0
0 0 0
0 0 0
0 0 0
0 0 0
0 0 0
0 0 0
0 0 0
0 0 0
-0.8366254788644333 0.03181154377451043 -0.5468508332237773
-0.8465367629475297 0.05029665079311755 -0.5299488238474659
-0.8571704144192271 0.03097069754426382 -0.5141008622225713
-0.8628155299759072 -0.004069080248778332 -0.5055025260256595
-0.8616683032482566 -0.0436303999470448 -0.505592843479544
-0.8537973753099022 -0.07906335186605888 -0.5145668356060513
-0.8411975912746812 -0.09907278789215591 -0.5315742611648437
-0.8299984005448576 -0.08099768299951166 -0.5518532689417435
0 0 0
0 0 0
0 0 0
0 0 0
0 0 0
0 0 0
0 0 0
0 0 0
0 0 0
0 0 0
0 0 0
0 0 0
0 0 0
0 0 0
0 0 0
0 0 0
0 0 0
0 0 0
0 0 0
0 0 0
0 0 0
0 0 0
0 0 0
0 0 0
0 0 0
0 0 0
0 0 0
0 0 0
-0.7800336257182948 0.2429024289316528 -0.5766679744600648
-0.8081359343554128 0.2725389172388346 -0.522148302873606
-0.8454053722643768 0.2552362027924254 -0.4691953082998951
-0.8823646356771626 0.2069848098471621 -0.4225990276832656
-0.9148136419436901 0.1250767366576752 -0.3840205859856837
-0.9282578219583882 0.08430443818965334 -0.3622570602135937
-0.936715969367657 0.04519064543219477 -0.34716134332185
-0.9407007182329501 0.002119137926822677 -0.3392309950026061
-0.939687110512702 -0.0428076914937349 -0.3393458941629696
-0.9336891452372944 -0.08619553396539499 -0.3475556214341389
-0.9232276533289709 -0.1259032700916166 -0.3630414118374351
-0.9075888325708382 -0.1673486922509446 -0.3850674307112987
-0.8717607708694821 -0.2491377326089131 -0.4218572608875369
-0.8314602181882292 -0.2987724785297329 -0.4684110498734864
-0.7912408461725189 -0.3179011173884201 -0.5223761125007436
-0.7611408235267221 -0.2899444078653556 -0.5801697054385647
0 0 0
0 0 0
0 0 0
0 0 0
0 0 0
0 0 0
0 0 0
0 0 0
0 0 0
0 0 0
0 0 0
0 0 0
0 0 0
0 0 0
0 0 0
0 0 0
0 0 0
0 0 0
0 0 0
0 0 0
0 0 0
0 0 0
-0.7522880648425933 0.3367536819994066 -0.5662681565788671
-0.7902462615152942 0.3652034133327599 -0.4920744994929139
-0.8458748789941191 0.3280703822156403 -0.4205538174830511
-0.8801734042481664 0.3069328344023524 -0.3620594062028097
-0.9105673326698837 0.2737275442920625 -0.3097424158398229
-0.9376419443822239 0.2249080773857726 -0.265035735065589
-0.9591651609076969 0.1637983643823681 -0.2305911748670619
-0.9717754801596333 0.1102990208632713 -0.208534270941534
-0.9790857983113234 0.05956199943272665 -0.1945337188475401
-0.9822179093544283 0.008560475161728949 -0.1875491850380071
-0.9813020437762687 -0.04290993331360998 -0.1876300522398764
-0.9763211478121767 -0.09413209282440284 -0.1947720858727222
-0.9670830197627177 -0.1453051082303004 -0.2088943714148447
-0.9523164104636342 -0.199409606998701 -0.2309312949738127
-0.9281856196210893 -0.2611986707042713 -0.2650409590062181
-0.8983894731933276 -0.3111866894864551 -0.3099341845325797
-0.8653199471868831 -0.3458867752623295 -0.3627447142262945
-0.8283876411579826 -0.3687068035051611 -0.4216980069027114
-0.7697156815406654 -0.406906981917799 -0.4918988490095667
-0.729321356693977 -0.3805764849512865 -0.5685524582412597
0 0 0
0 0 0
0 0 0
0 0 0
0 0 0
0 0 0
0 0 0
0 0 0
0 0 0
0 0 0
0 0 0
0 0 0
0 0 0
0 0 0
0 0 0
0 0 0
0 0 0
0 0 0
0 0 0
-0.7556355192274615 0.4172597908018146 -0.5048853622970958
-0.8071243350997511 0.417068666432629 -0.4178564767595358
-0.8471858960710847 0.4073161848883575 -0.3411298624075967
-0.8855481985369246 0.3761443411382647 -0.2726166221962041
-0.9153782750378953 0.3400330853753913 -0.2155460842574934
-0.9402892442617203 0.2965833619698205 -0.1670163061751782
-0.9612822916679489 0.2446203239657961 -0.1268749495703738
-0.9777547514847083 0.1863621344873088 -0.09625383513611066
-0.98886821051554 0.1282121312532217 -0.07550703034353623
-0.9955196383421184 0.07087073163364851 -0.0625938421323415
-0.9983174543811808 0.01370153351610227 -0.0563429521518452
-0.9974584291886623 -0.04354759552658109 -0.05639405078852766
-0.9929213946438785 -0.1008517952116079 -0.06273770366414716
-0.9844581708239332 -0.1584600803820755 -0.07571335960912758
-0.9713932024004324 -0.2169973975545237 -0.09647474169333659
-0.9527852946522865 -0.2757686552831664 -0.1270898542672432
-0.929559763222976 -0.3284789519287286 -0.1673924273575361
-0.9023325669097739 -0.3729363607280931 -0.216135164979934
-0.870011933272167 -0.4103724131674706 -0.2732649236091831
-0.8288188627081293 -0.4431932087156272 -0.3415246295182076
-0.7858359056329707 -0.4550814599659156 -0.4187634107862087
-0.731656314303108 -0.4564417176164066 -0.5063003023500734
0 0 0
0 0 0
0 0 0
0 0 0
0 0 0
0 0 0
0 0 0
0 0 0
0 0 0
0 0 0
0 0 0
0 0 0
0 0 0
0 0 0
0 0 0
0 0 0
-0.6498653017189964 0.5063685011930066 -0.5668033438691282
-0.7015264260880337 0.5420735779341261 -0.4626196165380845
-0.7820318782454777 0.5075026059986631 -0.3617557826938156
-0.8318909611004913 0.4811153766069907 -0.2765599812547246
-0.8687956233895739 0.4514157383108388 -0.2035141174081079
-0.8998191172930704 0.412959832206289 -0.1406759863589826
-0.9254173692707113 0.368548120108438 -0.08817582331122106
-0.9468731466270074 0.3185122759995556 -0.04451038344310538
-0.9647715506275115 0.2629329298703286 -0.009062532184292087
-0.9789865866721951 0.2031253582686575 0.01803751491070125
-0.989222845451343 0.1416701016302548 0.03698302774545155
-0.995614828781857 0.07977034492149242 0.0488651694029519
-0.9983521309967381 0.01771149857442924 0.05458319661323562
-0.9975219286508501 -0.04442967898193096 0.05455277707184158
-0.9931080408560392 -0.1065696329344376 0.04877840222166003
-0.9849915639530248 -0.1686226722807376 0.03685123246617916
-0.9729576245590971 -0.2302913851012764 0.01787005205515194
-0.9568669708300688 -0.290378262684606 -0.009277105947304753
-0.9370348433783243 -0.346348399766516 -0.04481616085891411
-0.9135613140373934 -0.3969435820452869 -0.08855234704583949
-0.885773439163167 -0.4421779121110808 -0.1410110226689388
-0.8522604460857263 -0.4818357174487281 -0.2036822855047236
-0.8124810096517128 -0.5131919656529205 -0.2766019077024313
-0.7591736669403895 -0.541398720069218 -0.3613070291755954
-0.6743889323607001 -0.5774222692603246 -0.4601989687859499
-0.6190477133535448 -0.5443733203199519 -0.5660720949804695
0 0 0
0 0 0
0 0 0
0 0 0
0 0 0
0 0 0
0 0 0
0 0 0
0 0 0
0 0 0
0 0 0
0 0 0
0 0 0
-0.6281264378774073 0.5520796852348753 -0.5483294622673489
-0.6915476478764616 0.5760556149764187 -0.4358001596726105
-0.7431097659788255 0.5817677655350179 -0.3306571376687443
-0.7951308733184098 0.5593655134646658 -0.234258653292281
-0.8359344590254891 0.5270878837844989 -0.1529442479511434
-0.8684399363237629 0.4884811613612575 -0.08484239502238823
-0.8957264137403809 0.4437430299604453 -0.0276823967408687
-0.918968346264724 0.3938328941258593 0.01981994116861695
-0.9388526810350584 0.3392324759347741 0.05896584252298053
-0.9556338810745719 0.2803002918166488 0.09052972854179833
-0.9692008335591066 0.2178705921251506 0.1148135415156631
-0.9793081640843655 0.1532656090277297 0.1321558657308403
-0.9858176237391632 0.08750069793892144 0.1432034936217368
-0.9886771924625797 0.0211663848839806 0.1485577101844723
-0.9878646540852896 -0.04536402675743709 0.1485447080353279
-0.9833678232062308 -0.1117650515976256 0.1431652804419374
-0.9751883391518931 -0.1776481507839043 0.1320940487123877
-0.9633685510834638 -0.242401483797326 0.1147281806541081
-0.9480505953991135 -0.3049996209044417 0.09041736454648711
-0.9294861742506723 -0.3641356538626118 0.05882752300493582
-0.9077649379939442 -0.4190166960792002 0.01969329215039802
-0.8825709897803486 -0.4693614151914871 -0.02771840413117719
-0.8531169835224383 -0.5147976817900014 -0.08470395061161894
-0.8180937414355053 -0.5544757141385646 -0.1525755965237721
-0.774225025912341 -0.5882521656370963 -0.2335272979210369
-0.7184438842740203 -0.6126416645466626 -0.3294063994684256
-0.6628390500871976 -0.6095974413014195 -0.4347819605713456
-0.5958036171970007 -0.5877248702334917 -0.5473550279699588
0 0 0
0 0 0
0 0 0
0 0 0
0 0 0
0 0 0
0 0 0
0 0 0
0 0 0
0 0 0
0 0 0
-0.5851321536274481 0.5968903567211777 -0.5489465045380734
-0.6539655702698633 0.6249519124462345 -0.4263380583895905
-0.7074179694768445 0.6336015488195877 -0.3132233927960639
-0.7514668855311264 0.6248516997887708 -0.2117967733966504
-0.791057513937459 0.5993337695484536 -0.1225848372431407
-0.8249682458924995 0.5631966300780283 -0.0472963966682899
-0.8540306896400482 0.5199938589421946 0.01542620547470012
-0.8794350211962836 0.4711892665383416 0.06763666603663218
-0.901834838325815 0.4175911414509245 0.1109574826839735
-0.9214951659805306 0.3596433398255809 0.1466401281833032
-0.9383900588187246 0.2977143855596029 0.1754714852648661
-0.9522814241238602 0.23239790169166 0.1978668859560526
-0.9628421074225973 0.1645529656204296 0.2141434044735729
-0.9697851990795627 0.09503898005694207 0.224687026585756
-0.9729139001858856 0.02457749205732492 0.2298575422066023
-0.9721247418793086 -0.0462200663088862 0.2298634196571717
-0.9674050287264677 -0.1167717195149002 0.2247039739663607
-0.9588375891363844 -0.18644485915403 0.2141700075971413
-0.9466106938477963 -0.2544850650378183 0.1979028700289369
-0.931015598680574 -0.3200036007852869 0.1755210827732739
-0.912387640000089 -0.3821287064320967 0.1467189357090624
-0.8909610277026558 -0.4402779624050598 0.1111024884306166
-0.8667345519838159 -0.4941256820055255 0.06790454167423157
-0.8393842084524697 -0.5433066191876342 0.01587665416651562
-0.8081544490169884 -0.5871230960520482 -0.04661391011602149
-0.771697653271754 -0.6242521191451027 -0.1216224637051703
-0.7290076619675785 -0.651319514068883 -0.2105486152546209
-0.6812425949574713 -0.6623216603740125 -0.3118309558318758
-0.6235117390851972 -0.6563944198311732 -0.4247110509952028
-0.5506144316194407 -0.6306484366063548 -0.546906113604849
0 0 0
0 0 0
0 0 0
0 0 0
0 0 0
0 0 0
0 0 0
0 0 0
0 0 0
-0.5417571408850197 0.6197303382761458 -0.567832288726365
-0.607131838375108 0.6639026559292832 -0.436605307206984
-0.6599720961718211 0.6826870476463457 -0.3136482540211055
-0.7033164839984754 0.6809626569538535 -0.2040484824015373
-0.7402295002856681 0.6635138330750803 -0.1086723526240412
-0.7732452641923196 0.6335413601018948 -0.02677884322352966
-0.8030330246500861 0.5944325718996093 0.0422833156948394
-0.8300865852663293 0.548582830305405 0.100065674709142
-0.8548075816175219 0.4972801970407655 0.1483792574462498
-0.8773478277413395 0.4411800339544585 0.1887351763649128
-0.8976218489267993 0.3806410046906233 0.222232855080761
-0.9153575535335033 0.3159816828553507 0.2495518488993009
-0.9301549995860798 0.2476775210435865 0.2710489297428099
-0.9415662580557118 0.1764168730974106 0.2869321672059376
-0.9491840137069341 0.103008402357141 0.2973869149223336
-0.9527044392972006 0.02828566859609729 0.3025792000377386
-0.9519592049373635 -0.04692512207268781 0.3026081708306723
-0.9469298942317754 -0.1217940414321411 0.2974726657725441
-0.937753641706198 -0.1954673903399565 0.287072476528925
-0.9247176687067316 -0.2670656721209839 0.2712437279572631
-0.9082299592423381 -0.3357299924869021 0.2498073523325624
-0.8887515451636809 -0.4007308284620635 0.2225657073524064
-0.8666979225765743 -0.4615706405185989 0.1891751960820979
-0.8423480786780709 -0.5179369056307717 0.1489666947105389
-0.8157724471409042 -0.5695138271101661 0.1008430226444628
-0.7867644147059077 -0.6157336473483679 0.0432877728180326
-0.7548078541462651 -0.6554493637407669 -0.02551930427996978
-0.7192298178887296 -0.6864598332082252 -0.1071511383583
-0.679143183551943 -0.7055815319610291 -0.202285041440188
-0.6318091149294994 -0.7097202993104657 -0.3116317362507628
-0.5742699249045368 -0.6939114189734037 -0.4343972789606931
-0.5045498537950533 -0.6523127885830193 -0.5656124741255577
0 0 0
0 0 0
0 0 0
0 0 0
0 0 0
0 0 0
0 0 0
0 0 0
-0.5750030182600327 0.6750548718175799 -0.4622471730873023
-0.6102932019797244 0.7195091501198262 -0.3314344437610249
-0.6490325883558895 0.7304681099584972 -0.212539501236158
-0.6842096168335349 0.721081820822461 -0.1090789068146128
-0.7158824099033065 0.6979178149609032 -0.02056936438570992
-0.7451930303469143 0.664603047691099 0.05468214079647337
-0.7728015003888424 0.6235109561454514 0.118371992309576
-0.7989904789921135 0.5761496306497489 0.1722376775914917
-0.8237950812123054 0.5233441943065474 0.2178818910695457
-0.8470436994116987 0.4654989150437082 0.2565691551610866
-0.8683922761309891 0.4028393294405989 0.2891631536207338
-0.8873638425108987 0.3356113374515017 0.3161493969285826
-0.9033965888993027 0.2642277620962121 0.3377251736289893
-0.9159082385834305 0.189328994507927 0.3539302619635884
-0.9243717990822168 0.11175370656146 0.3647572975709744
-0.9283842516210314 0.03247360181108917 0.3702001438782427
-0.9277155770968327 -0.04746312529201437 0.3702580988302681
-0.922336431412713 -0.126972262706122 0.3649295161975096
-0.9124254077351517 -0.2049706019794032 0.3542131104907645
-0.8983534699374327 -0.2804253556021336 0.3381163453410534
-0.8806409012922503 -0.352424938242322 0.3166516475183228
-0.859887158724401 -0.4202588612014139 0.2897871008905795
-0.8366875759751258 -0.4834594730930952 0.2573340981786402
-0.811557095412478 -0.5417523150346368 0.218813870767539
-0.784865840978227 -0.5949202336770862 0.1733652999511171
-0.7567777424927394 -0.6426150295928816 0.1197220623316016
-0.7271903659107545 -0.6841251570980771 0.05627558220146719
-0.6956714179144334 -0.718116081319692 -0.01872356929035595
-0.6613224441303305 -0.7424319682235442 -0.1069925111827894
-0.6227137837893966 -0.7536639355054298 -0.2102812778094122
-0.5796704370076466 -0.7453372813753359 -0.3293243408121945
-0.5399921746022101 -0.7038388585093988 -0.4615401527717412
0 0 0
0 0 0
0 0 0
0 0 0
0 0 0
0 0 0
0 0 0
-0.4538896556337784 0.731865421010525 -0.5082884870206449
-0.5390423029965135 0.7598177232662598 -0.363469975363429
-0.5859754098941636 0.7752893008071352 -0.2357102438447461
-0.62200346645403 0.7731700959398802 -0.1237727371576086
-0.6531949926325927 0.7566860731229773 -0.02761319143877522
-0.68184350250151 0.7294835734112771 0.0542508453352218
-0.7091753698166586 0.6940496683370068 0.1239570600115048
-0.7357754915174557 0.6518783913157776 0.1835456047357158
-0.7617938543376731 0.6037823820607938 0.2347700121530528
-0.7870863861013923 0.5501259932766572 0.2790276193053662
-0.8112967609481404 0.4910294832359379 0.3173131139239331
-0.8339065278803119 0.4265512099143511 0.3502198853280678
-0.854276466012365 0.3568442732448189 0.3779866191676644
-0.8716943257228467 0.2822767572014951 0.4005856148770188
-0.8854383158411537 0.2034949446075747 0.4178382418586653
-0.8948546073588933 0.1214206478091235 0.4295256196947663
-0.8994358530510898 0.03720048479620987 0.4354667268313215
-0.8988856077199725 -0.04786839936959839 0.4355608804469104
-0.8931583500580671 -0.1324219968719376 0.4298052773826763
-0.8824693243959579 -0.2151188153283473 0.4182962906742891
-0.8672714854203036 -0.2947331784837092 0.4012138134184186
-0.8482008693116648 -0.3702452717993995 0.3787792549878153
-0.8259990150794427 -0.4409089653266503 0.351176467580578
-0.8014282509003033 -0.5062697555048944 0.3184394657072118
-0.7751945957082409 -0.5661143911528055 0.2803352188263629
-0.7478809043430203 -0.6203617548004544 0.2362740910467465
-0.7198812381132015 -0.6689161164870995 0.1852626031243783
-0.6913221395742896 -0.7114931454243594 0.1259015621371602
-0.6619513099647983 -0.7474195432677887 0.05643128190336284
-0.6309738531929978 -0.7753946577766154 -0.02520161261241858
-0.5968492131755971 -0.7931520805331403 -0.1211643259281412
-0.5569512188990211 -0.7971963862541839 -0.2329876853186967
-0.5051309889684327 -0.7840876094991152 -0.3606234942620014
-0.4148757377622467 -0.7576689976204632 -0.5038013619086728
0 0 0
0 0 0
0 0 0
0 0 0
0 0 0
-0.3780448408933667 0.7290487464746909 -0.5705874372412963
-0.4527054548490126 0.7860144631784608 -0.4209976660555547
-0.5109324025385763 0.8131089490804349 -0.2789299499183771
-0.5522617815596245 0.8191509392042926 -0.1549150200248981
-0.5849012198007374 0.8096275234593776 -0.04892684674740547
-0.6134666891531326 0.7886547520228292 0.04101589217977356
-0.6402801624080503 0.7591018703848859 0.1174975063773189
-0.6665044152247405 0.722667840561971 0.1830930274571468
-0.6926387826192471 0.6801866828695998 0.2399949859029916
-0.7187534928298377 0.6319406472754254 0.2899041822154759
-0.7446193247693029 0.5778986556225166 0.3340287487773987
-0.7697833314552356 0.5179015664246427 0.3731106941761116
-0.7936168954304179 0.4518196055967564 0.407469345209889
-0.8153569747433451 0.3796911515817432 0.437067080833033
-0.8341566566481753 0.3018364340044283 0.4616031187904042
-0.8491546230385567 0.2189284915349404 0.4806316071238774
-0.8595628314556931 0.1320064132397012 0.4936861813373555
-0.8647605500046001 0.04242952461830152 0.5003887754500553
-0.8643768580278941 -0.04821673162968799 0.5005275158238313
-0.8583445104401368 -0.138247812596632 0.4940974030588785
-0.8469135554863936 -0.2260224010502295 0.4813016764534318
-0.8306210504324204 -0.3100807743790919 0.4625133337959074
-0.8102227696096371 -0.3892577560355461 0.4381979723506941
-0.7866015230421589 -0.4627493892094836 0.4088044113436218
-0.7606710260562242 -0.5301182869320491 0.3746387486350022
-0.7332897863131523 -0.5912372693073622 0.3357448148084852
-0.7051883268525226 -0.6461864045215442 0.2918091058936615
-0.676901587640392 -0.6951220565464455 0.2420941287031895
-0.6486912496846209 -0.7381251010001705 0.1853941688837389
-0.6204380327244552 -0.7750191699901844 0.1200080567992543
-0.5914808419544771 -0.8051318484939199 0.04373922886363767
-0.5603625311334428 -0.8269693295844435 -0.04599523484423799
-0.5243557927243443 -0.8378629265495242 -0.1517785193968177
-0.4784551319218293 -0.8337711440057628 -0.2755110998870745
-0.4144334842946756 -0.8089765393533072 -0.4168954855492215
-0.3340909696785471 -0.7541416129306786 -0.5653792104645891
0 0 0
0 0 0
0 0 0
0 0 0
-0.404634116880713 0.7694120138622933 -0.4942432441425323
-0.4409940190512818 0.8289786054545274 -0.3439749218470208
-0.4796881939931872 0.8528709244650164 -0.2061805586027495
-0.5126515895570476 0.8541566520908167 -0.08720528317504153
-0.5411145419014415 0.8408422765735041 0.01339098463441975
-0.5672396604383164 0.8176559846881437 0.09837610649687728
-0.5925408446581488 0.7871994671139319 0.1709161969719326
-0.6178675265673677 0.7507033256956687 0.2338466087053327
-0.6435820689484747 0.7085472748471939 0.2894181746791569
-0.669691717328939 0.6606185924984834 0.339258130317224
-0.6959283687005673 0.6065580246914993 0.3844100263001903
-0.721795832442967 0.5459423841945766 0.425391219241659
-0.7466025230006897 0.4784391889708388 0.4622560060247241
-0.769496193163777 0.4039485296091415 0.4946728152355523
-0.789515183073175 0.3227276499202764 0.5220274319170072
-0.8056653389250527 0.2354794474920739 0.5435556930652158
-0.8170219159412432 0.1433818854823242 0.5584951421339607
-0.8228437252145989 0.04804341601175088 0.5662331975898998
-0.822677488402814 -0.0486157032105011 0.5664258675913256
-0.8164283265922988 -0.1445392711740951 0.5590645639156174
-0.8043784899170054 -0.2377373511939836 0.5444779121379544
-0.7871492903341367 -0.326476288515288 0.5232678355906725
-0.765615952478924 -0.4094209041597799 0.496192237491456
-0.7407964423351074 -0.485704963462626 0.464016507778997
-0.7137380926059719 -0.5549242571007195 0.4273605082882637
-0.6854194672433515 -0.6170643337479879 0.386564046362296
-0.6566726468031245 -0.6723858992942022 0.3415819628887113
-0.6281197517109411 -0.7212882438415188 0.2919055443231637
-0.6001099455411794 -0.7641573900694471 0.2364984914641384
-0.5726398867270294 -0.8011855919133813 0.173738905946996
-0.5452396802244218 -0.8321273866839572 0.1013790088691815
-0.5168099996220071 -0.8559394889143732 0.01658359453500877
-0.4854371689970183 -0.8702445241975419 -0.08381660372714733
-0.4484793492840675 -0.8705275108795113 -0.2026033713136603
-0.4044433647367954 -0.8488818842507961 -0.3403308850386588
-0.3623447460777507 -0.7919598576566704 -0.4914324662151207
0 0 0
0 0 0
0 0 0
-0.2876807791272532 0.7602899796138664 -0.582407860712304
-0.3665973653776409 0.8280394692866274 -0.4242134003089627
-0.4083291608847878 0.8701453752016748 -0.2758882425661906
-0.4401477312570344 0.8863570250113232 -0.1436704523635992
-0.4672946096824031 0.8835793852715755 -0.03038449744318013
-0.4919783420085189 0.8681598958155685 0.06523577463362548
-0.5156745934457253 0.8442035713667861 0.1462875379728182
-0.5393517563388098 0.8138756627300457 0.216115914615211
-0.5635646176277489 0.7780252526006266 0.2776177733392082
-0.5885410534777782 0.7366926972964112 0.3330214679587558
-0.6142401189822836 0.6894595709210427 0.3838679151713529
-0.6403825033065756 0.6356883578680685 0.4310574916757638
-0.6664647915559748 0.5747049281327107 0.4749093884060689
-0.6917707722804217 0.5059612358801565 0.5152246368383145
-0.7153939624797027 0.4291943931142205 0.5513652612986288
-0.7362851947569663 0.3445768363630065 0.5823666506795845
-0.7533347911970995 0.2528337793332516 0.6070928861385931
-0.7654889970776386 0.155294870213752 0.6244278169959792
-0.7718863378304321 0.05385101686034936 0.6334757686398348
-0.7719868171917919 -0.04919348156978724 0.6337320849169066
-0.7656617759611494 -0.1513549614591115 0.6251829496025373
-0.7532193824737098 -0.2502437274589969 0.6083080130438442
-0.7353584208483757 -0.3438161179154801 0.583984991201753
-0.7130641508245216 -0.4305520443026252 0.553321293604117
-0.6874744591892544 -0.5095302558358396 0.517453173099079
-0.6597470731281624 -0.5804034536546238 0.4773527317242537
-0.6309495218607519 -0.6432985715466384 0.4336699767216336
-0.6019794875032162 -0.6986754232517057 0.3866178340033143
-0.5735102436701235 -0.747170148616742 0.3358910082474235
-0.5459483236512818 -0.7894321435356093 0.2806017082184784
-0.519387459056872 -0.8259415010436064 0.2192197624035742
-0.4935435066935189 -0.8567712547621197 0.1495253290048448
-0.4676601696405048 -0.8812402169470807 0.06862685893202314
-0.4403971255522542 -0.897402366667821 -0.02682096389589999
-0.4097605918531148 -0.9013973959469603 -0.1399249511138845
-0.3730437118608686 -0.8870588094230194 -0.2719651773041538
-0.3250092559472145 -0.8473369559608119 -0.4199869838598599
-0.2398041444504715 -0.7814262845059733 -0.5760789305186975
0 0 0
0 0 0
-0.3159441528254063 0.7903551298428838 -0.524898143477831
-0.3439874208757761 0.8649416515795395 -0.3654430101152427
-0.3710592149632175 0.9024359610073063 -0.2189164116088594
-0.3950432596665266 0.9141078421824361 -0.0913656163587537
-0.4170479227143756 0.9087280800970368 0.01686139385629994
-0.4382003683934052 0.8923362055244937 0.1082429371831343
-0.4593514580445106 0.8685042757608697 0.1862701290531273
-0.4810751022648737 0.8389660166919727 0.2543673894524321
-0.5037071954853867 0.8042379816500118 0.3154050254637056
-0.5273771008863406 0.7640849204456821 0.3715476117649439
-0.552019152118274 0.7178364945507162 0.4242471246641053
-0.5773672258140015 0.6646091571230435 0.4742802492451492
-0.6029413168760539 0.6034860288437972 0.5217915114239716
-0.6280375352531122 0.5336913866425697 0.5663412029304651
-0.6517353526565781 0.4547754260166079 0.6069763932716148
-0.6729369255113788 0.3668011254600215 0.6423494599083538
-0.6904499882363043 0.2705021942638878 0.6709004223004398
-0.7031154749098882 0.1673653898028242 0.6910987304563583
-0.7099646840998622 0.05959193994594949 0.7017114421359111
-0.7103737023688234 -0.05008376266166014 0.7020404687056582
-0.7041742894256807 -0.1586970240454775 0.6920648991756089
-0.6916877962794056 -0.2634115019295048 0.6724450707153569
-0.673671906082836 -0.361844852138548 0.6443868914988496
-0.6511977292139626 -0.4522870031562101 0.6094078964392833
-0.6254935970233567 -0.5337776904897765 0.5690686577366409
-0.5977938827247142 -0.6060552374834225 0.5247280466068329
-0.5692195310213263 -0.669417377236543 0.4773567853897214
-0.540699419583233 -0.724541594260385 0.4274150393341042
-0.5129270736036537 -0.7722997673045454 0.3747784500017796
-0.4863386276122907 -0.8135799771049554 0.3186885001786117
-0.4610955420642416 -0.8491037690484731 0.2577085378410272
-0.4370565645312381 -0.8792046633560295 0.1896858437869363
-0.413728608656975 -0.9035148080014811 0.1117570136537743
-0.3902009198419909 -0.9205015750759061 0.02049615664556598
-0.3651049898039901 -0.9268353490153527 -0.08760469300110099
-0.3367259944495263 -0.9167115427005884 -0.2150710397554353
-0.3036982647680698 -0.8814502667330666 -0.3616805099159593
-0.2693051787200264 -0.809388834000596 -0.5218854626349826
0 0 0
0 0 0
-0.2970628016562272 0.8305395928829646 -0.4711238441492336
-0.3094941571711948 0.8979844077617137 -0.3127896579072515
-0.3267748307982724 0.9296292787285917 -0.1703162179221875
-0.344593362882706 0.9375355549156358 -0.04777549085271195
-0.3622891393415055 0.9303920788488748 0.0558315245220815
-0.3801536859021951 0.9136976439592329 0.1436655509101651
-0.3985960436122565 0.8904902016754107 0.2194274247598546
-0.4179401758997716 0.8621026696531328 0.2865396941887959
-0.4383909058616766 0.8287601686187115 0.3478074130447236
-0.4600273589182128 0.7899936643861205 0.4053206622866922
-0.4827883192785123 0.7449155984601181 0.4604521581435279
-0.5064459507691971 0.6924185021869296 0.5138765579190128
-0.5305738675114016 0.6313493521136102 0.5655876295497609
-0.5545199328505989 0.5606962982233336 0.6149205682281389
-0.5773979625882213 0.4798031109215661 0.6606062121634625
-0.5981150949214087 0.388600479380782 0.700890862154858
-0.6154493158848793 0.2878140146988064 0.7337473901280935
-0.6281814032757703 0.179086259092504 0.7571764895866324
-0.6352668048893768 0.06494708019210649 0.7695569916388011
-0.6360115727518346 -0.05140373922707682 0.769965541384296
-0.6302033228058552 -0.1664788427332084 0.7583723141351287
-0.6181552294965272 -0.2769611002267098 0.7356471037170647
-0.6006489350498943 -0.380113852776192 0.7033735250569692
-0.5787972427995074 -0.4740428626608035 0.6635338093029157
-0.5538701847163217 -0.5577715928641469 0.6181574788644875
-0.5271302189964866 -0.6311539623825972 0.5690152967974256
-0.4997072549239225 -0.6946854112979544 0.5174020087960511
-0.4725235634506532 -0.7492765982507337 0.4640108417889658
-0.4462613960484541 -0.7960350569441252 0.408875230984768
-0.4213572916199795 -0.8360713624128205 0.3513441471717504
-0.3980047914990886 -0.870319008491466 0.2900638022956288
-0.3761497566557629 -0.8993338478959526 0.2229573739450417
-0.3554685848410338 -0.9230204608591939 0.1472253851290374
-0.3353370726250208 -0.9402213089331685 0.05943852245202732
-0.3148490038058571 -0.948115161462911 -0.04413326870533141
-0.2930952791570942 -0.9414335309612291 -0.1667275145790182
-0.2703482345929623 -0.911642532871399 -0.3095476123511344
-0.2518892300673761 -0.8464457922572439 -0.4691282730192995
0 0 0
0 0 0
-0.2476281620412889 0.8708054709900328 -0.4247094595813466
-0.2596978057173243 0.9277493610234883 -0.268026440535473
-0.2742415696363933 0.9528141775502984 -0.1301410947491793
-0.288785639995691 0.9573138172317979 -0.01237374112232664
-0.3033034715585177 0.9488900184237433 0.08726246086570597
-0.318169514319859 0.9322493393624536 0.1722768975101801
-0.3337280746761317 0.9098869818034062 0.2464371167613546
-0.3502306156242251 0.8827755687345582 0.3131226774362608
-0.3678405895671681 0.8508904943183646 0.3750715496349018
-0.3866335879143187 0.8135642675479201 0.4343128495286733
-0.4065801533365686 0.769720524390584 0.4921614503846231
-0.4275137239205929 0.7180483956199453 0.5492162756211516
-0.4490905669857953 0.6571697713722914 0.6053474657078085
-0.4707517453101722 0.5858370969679741 0.6596875700690158
-0.491701558541881 0.5031784714712535 0.7106623693255029
-0.5109206224768322 0.4089769684187652 0.7561071067189369
-0.5272312506823738 0.303935063002577 0.7935053155345076
-0.5394234156614208 0.189843146760362 0.8203547758526728
-0.5464300596190477 0.06956363950986795 0.8346107416052496
-0.5475151956770056 -0.05322368280049505 0.8351014010836779
-0.5424203430951435 -0.1744908779531129 0.8217865324448301
-0.5314195370942858 -0.2904294981218793 0.7957662861765177
-0.5152646659620118 -0.3979522803282756 0.7590364329810405
-0.4950431306820223 -0.4949988664468571 0.714078721837353
-0.4719963978387458 -0.5806025991412522 0.6634154221132262
-0.4473499641662863 -0.6547590091198243 0.6092361196915754
-0.422188390673209 -0.7181796605616839 0.5531500139530591
-0.3973853124288529 -0.7720151852413442 0.4960619590561196
-0.3735797946113382 -0.8176030267173952 0.4381363118490684
-0.3511807936756889 -0.8562595411690067 0.3788029148651768
-0.3303801145769697 -0.8891043637056496 0.3167687016289324
-0.3111566528985402 -0.9168817998838503 0.2500186041052299
-0.2932599383299369 -0.939726667923531 0.1758192201212901
-0.2761717792649072 -0.9568112345931103 0.09078221022900101
-0.2590770194526791 -0.9658157530314715 -0.008889836205858676
-0.2409752726937593 -0.9622159002480789 -0.1267733381273314
-0.2214036601473511 -0.9384848131216926 -0.2650031600062479
-0.2035387074872399 -0.8831416677486598 -0.4226497240511801
0 0 0
-0.07947445854194804 0.8284166131768976 -0.5544454215267557
-0.1659921484378719 0.9065832374764982 -0.3880121649943594
-0.1980935318959202 0.9518358867406363 -0.2340243520099261
-0.2156571717494683 0.9713721458520674 -0.09964004484026223
-0.228882354008524 0.9733439032960037 0.01464629441242867
-0.2408870976937943 0.9641359297279501 0.1114240331897956
-0.252833534946102 0.9477623116239912 0.1944782874045478
-0.2652489492487794 0.9262854718113567 0.2676531704158018
-0.2784190940643761 0.9003965450469908 0.3343185153828808