# OOMMF: rectangular mesh v1.0
# Segment count: 1
# Begin: Segment
# Begin: Header
# Title: 
# Desc: time = 2.42e-09
# Desc: stepsize = 8.908026100710541e-14
# Desc: step = 15486
# meshunit: m
# valueunit: (none)
# valuemultiplier: 384000.0000000001
# xmin: 0
# ymin: 0
# zmin: 0
# xmax: 9.357999999999999e-08
# ymax: 9.357999999999999e-08
# zmax: 2.3395e-08
# ValueRangeMaxMag: 1
# ValueRangeMinMag: 0
# meshtype: rectangular
# xbase: 1.16975e-09
# ybase: 1.16975e-09
# zbase: 1.16975e-09
# xstepsize: 2.3395e-09
# ystepsize: 2.3395e-09
# zstepsize: 2.3395e-09
# xnodes: 40
# ynodes: 40
# znodes: 10
# End: Header
# Begin: Data Text
0 0 0
0 0 0
0 0 0
0 0 0
0 0 0
0 0 0
0 0 0
0 0 0
0 0 0
0 0 0
0 0 0
0 0 0
0 0 0
0 0 0
0 0 0
0 0 0
-0.8360911361449562 0.02955150186618332 -0.5477940496183656
-0.8459159083746837 0.04816388774189702 -0.5311370029250638
-0.8564353556426528 0.02896092772840772 -0.5154413121494549
-0.8619545444902974 -0.005951998755498817 -0.5069506257450898
-0.8606774906941799 -0.04537546256524237 -0.5071245649831604
-0.8526795604135641 -0.08065242296217451 -0.5161712447659798
-0.8399659452570913 -0.1004765463787631 -0.5332557308047954
-0.8286893628152928 -0.08215814848454499 -0.5536460770152488
0 0 0
0 0 0
0 0 0
0 0 0
0 0 0
0 0 0
0 0 0
0 0 0
0 0 0
0 0 0
0 0 0
0 0 0
0 0 0
0 0 0
0 0 0
0 0 0
0 0 0
0 0 0
0 0 0
0 0 0
0 0 0
0 0 0
0 0 0
0 0 0
0 0 0
0 0 0
0 0 0
0 0 0
-0.780267546947461 0.2405455849040988 -0.57733904836217
-0.8083003163719891 0.2702500983115279 -0.5230826731173106
-0.8454704036536802 0.2530012156055958 -0.4702873392382291
-0.8823078377355459 0.2047889440535077 -0.4237857570328124
-0.9145955345136991 0.1229006784138505 -0.3852407448505617
-0.9279219702559742 0.08220235303172028 -0.363598116431203
-0.9362667125637834 0.04318640980774036 -0.3486252672324872
-0.9401345643436213 0.0002289000148479325 -0.3408033869127652
-0.9390016857989575 -0.04456818143368545 -0.3410124796402756
-0.9328856040344798 -0.0878086152305754 -0.3493051629685874
-0.9223103435307879 -0.1273496961906544 -0.3648639268224081
-0.9065565066059139 -0.1686154905466994 -0.3869420068668906
-0.8705497774963625 -0.2502671051447638 -0.4236855685334263
-0.8300979238553652 -0.2997252615666448 -0.4702150618491692
-0.7897565856931859 -0.3186381451545868 -0.524170075268214
-0.7595796728608087 -0.2904138775839197 -0.5819780926146088
0 0 0
0 0 0
0 0 0
0 0 0
0 0 0
0 0 0
0 0 0
0 0 0
0 0 0
0 0 0
0 0 0
0 0 0
0 0 0
0 0 0
0 0 0
0 0 0
0 0 0
0 0 0
0 0 0
0 0 0
0 0 0
0 0 0
-0.7529438890170838 0.3344830766865958 -0.5667420677893052
-0.7908365338091244 0.3629585917076503 -0.4927866044226124
-0.8463472689533935 0.3258069151731673 -0.4213622602470185
-0.8805598645267819 0.3046825494285857 -0.3630191028834049
-0.9108609032029329 0.271500453230073 -0.3108374477314494
-0.9378261474452506 0.2227047120713387 -0.2662418607004176
-0.9592207910007926 0.1616210506196984 -0.2318924537547485
-0.9717100187961514 0.1081753354979536 -0.2099469841676408
-0.9789033586026421 0.05751835835500255 -0.1960608399671177
-0.9819192518078853 0.006619418327219334 -0.1891844767153252
-0.9808877349422267 -0.04472809735951044 -0.1893637999896107
-0.9757929312856964 -0.09580834421022663 -0.1965932766718187
-0.9664423566886634 -0.1468226205820648 -0.2107896802110496
-0.9515582079238417 -0.2007577264854064 -0.2328804675991031
-0.9272876537612372 -0.2623790387358196 -0.2670109496145175
-0.8973569205952575 -0.3121824249027095 -0.3119177626260813
-0.8641662194642783 -0.3466748111487762 -0.3647373307625319
-0.8271231825924636 -0.3692665943296253 -0.4236855238621134
-0.76830672181953 -0.4072508803165915 -0.4938132255096941
-0.727828098489398 -0.3806430613886076 -0.5704183717816379
0 0 0
0 0 0
0 0 0
0 0 0
0 0 0
0 0 0
0 0 0
0 0 0
0 0 0
0 0 0
0 0 0
0 0 0
0 0 0
0 0 0
0 0 0
0 0 0
0 0 0
0 0 0
0 0 0
-0.7565608529226295 0.4151098020356041 -0.505271736869325
-0.8079680671006341 0.4148879844905832 -0.4183964183295624
-0.8479627861985812 0.4051112006926243 -0.3418245577715544
-0.8862414612350794 0.3739085718281435 -0.2734382056358412
-0.9159879201515726 0.3377780963223799 -0.2164996253604716
-0.9408071278155267 0.2943211572200012 -0.1680981994673884
-0.9616949256193706 0.2423610866185793 -0.1280779986219876
-0.9780487093642311 0.184119623313248 -0.09757400484734008
-0.9890401679653029 0.1260109243603285 -0.07694668994193658
-0.9955699575937402 0.06873865495240072 -0.06415182656894908
-0.9982476548930594 0.01166536390217746 -0.05801326387591497
-0.9972710984330604 -0.04546337435180464 -0.05816732607455927
-0.9926200389788751 -0.1026255212351516 -0.06460232665151647
-0.9840457222893957 -0.1600737954357326 -0.0776556273475406
-0.9708690709341619 -0.2184381622226673 -0.09847850724000921
-0.9521443034131499 -0.2770282432950861 -0.1291378251896997
-0.9288047667915497 -0.3295457729793512 -0.1694735634154666
-0.9014697671955179 -0.3737965312928027 -0.2182393457329061
-0.8690432534186895 -0.4110130386398022 -0.2753762984636394
-0.82773358909454 -0.4436058428530065 -0.3436145539282995
-0.7846456936781027 -0.4552436738044359 -0.4208138933702745
-0.7303546147900127 -0.4563440441076881 -0.5082639570758206
0 0 0
0 0 0
0 0 0
0 0 0
0 0 0
0 0 0
0 0 0
0 0 0
0 0 0
0 0 0
0 0 0
0 0 0
0 0 0
0 0 0
0 0 0
0 0 0
-0.651140525711321 0.50442844528109 -0.5670696247972433
-0.7027474162728553 0.540114604691374 -0.4630575371602392
-0.7831474232080088 0.5054540166127435 -0.3622103678978553
-0.8329337714141293 0.4789897835211548 -0.2771103024432534
-0.869774478669655 0.4492225145508503 -0.2041849374355024
-0.9007261999099996 0.4107043632699654 -0.1414716889936039
-0.9262441058015142 0.366241429113317 -0.08910147063313731
-0.947607915648121 0.3161688983163314 -0.04556825581981366
-0.9654005261630129 0.2605699521955653 -0.01025300429034284
-0.9794969331856782 0.2007645179107643 0.01671425223899049
-0.9896071203658793 0.1393397226127518 0.03552729969126246
-0.9958704575414707 0.07750209134291475 0.0472806264088723
-0.9984801304747638 0.0155368887778611 0.05287753903314959
-0.9975260732664218 -0.04648150219811405 0.05273711318491976
-0.992994006762224 -0.1084732854893718 0.04686628713099478
-0.9847655752382836 -0.1703575536536746 0.03485779308486171
-0.97262490557605 -0.2318421985783828 0.01581100918730198
-0.956431619337747 -0.2917342901035182 -0.01138690075352302
-0.9365028336148062 -0.3475007780866201 -0.04696436798927065
-0.9129383784239805 -0.3978844267665326 -0.09072761507534485
-0.8850609780425013 -0.4429003685629774 -0.1432003096128958
-0.8514530548546575 -0.4823336942378932 -0.2058686541984898
-0.8115731691276027 -0.5134576262094565 -0.2787655955090746
-0.758144907023002 -0.5414309611969105 -0.3634127325954237
-0.6731899749045268 -0.5772393435566315 -0.4621796165327404
-0.6177547753005116 -0.5439051033087281 -0.5679315770303109
0 0 0
0 0 0
0 0 0
0 0 0
0 0 0
0 0 0
0 0 0
0 0 0
0 0 0
0 0 0
0 0 0
0 0 0
0 0 0
-0.6295903662830271 0.5503038597229882 -0.5484356230749281
-0.6929472875448195 0.5742074252638351 -0.4360159279844649
-0.7444631635403788 0.5798476676878715 -0.3309853175117985
-0.7964247146935153 0.5573492866467973 -0.2346688017177785
-0.8371741919162008 0.5249679601442753 -0.1534536190886818
-0.8696248647867565 0.4862590839459399 -0.08546752497100951
-0.8968474471586562 0.441425109301797 -0.02843465144674143
-0.9200125784833658 0.3914312947116773 0.01893137482403145
-0.9398048155440054 0.3367648362221884 0.05793404667844221
-0.9564777115571457 0.2777894399952029 0.08934995423365574
-0.9699216574059757 0.2153451350097053 0.1134832645040511
-0.9798955608757689 0.1507598235396942 0.1306758025888566
-0.9862664792781717 0.0850520933614605 0.1415788588281192
-0.9889875118013747 0.01881251356209473 0.1467984701364466
-0.9880408726485832 -0.04758827540513274 0.1466648902082241
-0.9834177847577217 -0.113829482230222 0.1411818316831673
-0.9751219714364291 -0.17952860015918 0.1300254688390565
-0.9631965288611448 -0.2440804164802838 0.1125930596469092
-0.9477835825954507 -0.306465710833115 0.08823292268810669
-0.9291346197781927 -0.365382430588314 0.05660863668212164
-0.9073372311127637 -0.4200411343722152 0.01745263509975394
-0.8820708532306273 -0.4701625718142081 -0.02996941684521251
-0.8525418031184434 -0.5153751036959416 -0.08695387527850419
-0.8174349107777078 -0.5548276067134206 -0.1548111542186102
-0.7734642839694863 -0.5883749401543483 -0.2357285116865081
-0.7175582391573138 -0.6125270526960709 -0.3315430336063777
-0.6618425305377564 -0.6092175801746288 -0.4368276602706701
-0.5946993930691427 -0.5870681424227258 -0.5492573422681967
0 0 0
0 0 0
0 0 0
0 0 0
0 0 0
0 0 0
0 0 0
0 0 0
0 0 0
0 0 0
0 0 0
-0.5867694273789112 0.5953046867575753 -0.5489207310877308
-0.6555372319079932 0.6232692437961455 -0.4263876022121028
-0.7089499706017927 0.6318165126943377 -0.3133653354640275
-0.7529704552988675 0.6229575177714621 -0.2120363754147718
-0.7925300973210072 0.59731607239444 -0.1229209278342555
-0.8264070608999133 0.5610457342725453 -0.04773943599736966
-0.8554284185166866 0.517707778416874 0.0148619299118458
-0.8807785903975088 0.4687734202619638 0.0669369490885017
-0.9031070591763762 0.4150585397305579 0.1101092560257007
-0.9226764694367318 0.3570145148689335 0.1456323072696
-0.9394603871429658 0.2950172710863254 0.1742956991723141
-0.9532225673543957 0.229667649571667 0.196518466884209
-0.9636401573483344 0.1618308934459637 0.2126226918091244
-0.9704321744084201 0.09236998019291739 0.2230004072465001
-0.9734082921792643 0.02200666286016836 0.228017550873625
-0.9724711790481015 -0.0486507196829318 0.2278879404337301
-0.96761329054394 -0.1190259724895925 0.2226147745223457
-0.9589211630805127 -0.1884941685402152 0.2119909229723037
-0.9465851590237804 -0.256309480548261 0.1956578311670766
-0.9308970849747149 -0.3215916545816724 0.1732322859313476
-0.9121913173099208 -0.3834762918444186 0.1444054507892447
-0.8906991047657908 -0.441386572609813 0.1087795858108511
-0.866414213498133 -0.4950001848101525 0.065583745595428
-0.839006172950125 -0.5439527479204741 0.01356649480704554
-0.8077124619405528 -0.5875446846499209 -0.04890626100567542
-0.7711783009312311 -0.6244483425647062 -0.1238882385095958
-0.7283948949083884 -0.6512819341091681 -0.2127738691061913
-0.6805295297658822 -0.6620327300818166 -0.3139939862752839
-0.6226903059631312 -0.6558369919417889 -0.4267723314137026
-0.5496810358088725 -0.6298121782559787 -0.5488054108630345
0 0 0
0 0 0
0 0 0
0 0 0
0 0 0
0 0 0
0 0 0
0 0 0
0 0 0
-0.5435359698808764 0.6183434836595967 -0.5676442421634948
-0.6088484977634656 0.6624057948949188 -0.4364883385163931
-0.6616557777939739 0.6810717927517459 -0.3136125712240719
-0.7049859708492076 0.6792183143981452 -0.2041011080125287
-0.7418937304566513 0.6616283097859619 -0.1088194486242418
-0.7749038427704918 0.6315010244528187 -0.02702758913710871
-0.8046799809209016 0.5922269745709861 0.04192062613598653
-0.8317102023298534 0.546208142861476 0.09957310888111785
-0.8563904757264647 0.4947407755385785 0.147739358684424
-0.8788681379740801 0.4384892989448763 0.187930654138178
-0.8990549987557832 0.3778219051355506 0.2212480897363437
-0.9166784219641223 0.3130667725381975 0.2483744484400163
-0.9313404744653748 0.2447084744328478 0.269671435571805
-0.9425978802394152 0.1734428701535368 0.2853538276614909
-0.9500500979634084 0.1000831373277332 0.295614913328735
-0.9534012198713314 0.02546339802794395 0.3006288896775013
-0.9524909027187868 -0.0495936629284631 0.3005021611158361
-0.9473078043281659 -0.1242652444121079 0.2952390097703012
-0.9379944827453248 -0.1977073867891206 0.2847422335171703
-0.924841475037865 -0.2690517372396345 0.2688483006048584
-0.9082578173820905 -0.3374505678180694 0.2473759314152915
-0.8887033037609084 -0.4021842999712492 0.220123208092836
-0.8665899663097915 -0.4627630711576995 0.1867409174870025
-0.8421914348573833 -0.5188791350742207 0.1465538475697236
-0.8155715856354755 -0.5702181921841539 0.09845913876462102
-0.7865168502536535 -0.6162105813514228 0.04093609284741918
-0.7545046714842853 -0.6557040383510088 -0.02783729150920474
-0.7188581506117204 -0.686489350206297 -0.1094318571186317
-0.6786901128010272 -0.7053738202535556 -0.2045177363629687
-0.6312608542533148 -0.7092563601851265 -0.3137915700338698
-0.5736168233507591 -0.6931696295017853 -0.4364396919453375
-0.5037963835405358 -0.65127816848302 -0.5674733043843384
0 0 0
0 0 0
0 0 0
0 0 0
0 0 0
0 0 0
0 0 0
0 0 0
-0.5768111386153478 0.6737427054909807 -0.4619087325077962
-0.6120895961814626 0.7180834111449049 -0.3312137389736588
-0.650830351767657 0.7289056734426786 -0.2124061497251487
-0.6860220718752201 0.7193648174412036 -0.1090319968074202
-0.7177167328795011 0.6960299441473947 -0.0206157268838221
-0.7470486678557902 0.6625289421930658 0.05453153776876254
-0.7746706659543543 0.6212385497308541 0.1181017512069227
-0.8008583596744635 0.5736731113234537 0.1718285456028633
-0.8256403484908017 0.5206663459814369 0.2173121513084929
-0.8488396963564311 0.4626328595774655 0.2558163543026487
-0.8701088609071053 0.3998096985483014 0.2882061330326874
-0.888969825501952 0.3324547912793857 0.3149705718037929
-0.9048626591182167 0.2609924989383111 0.3363130738336598
-0.9172100722121734 0.1860728423699236 0.3522819620203627
-0.9254927886810755 0.1085405672648832 0.3628802052429183
-0.9293173032442582 0.02936868656396553 0.3681125237482777
-0.9284636277099818 -0.05039853018208351 0.3679881522211079
-0.9229116511981874 -0.1296855612005098 0.3625130884516356
-0.9128472685459249 -0.2074215133735831 0.3516904606298781
-0.8986460709361149 -0.2825878483954823 0.3355284594938172
-0.8808299592919235 -0.3542873634419049 0.3140366967715254
-0.859997084594125 -0.4218223466918514 0.2871775101239369
-0.8367389273061864 -0.4847350427227811 0.2547545993442221
-0.8115647206655804 -0.5427571976113038 0.2162806709165702
-0.784837839306051 -0.5956739163421516 0.1708863697987988
-0.7567152725516318 -0.6431353355561402 0.1172984929408726
-0.7270882039354588 -0.6844246471538923 0.05390404498901823
-0.6955193545807209 -0.7181990290350611 -0.02104713987012166
-0.6611070735713949 -0.7422923649927977 -0.1092679374165393
-0.6224200686450282 -0.7532847562591556 -0.2124978450137836
-0.5792876272637011 -0.7446908036238209 -0.3314535441012789
-0.5395304705598737 -0.7028858780933289 -0.4635281153440541
0 0 0
0 0 0
0 0 0
0 0 0
0 0 0
0 0 0
0 0 0
-0.4558589082376684 0.7308501478658936 -0.5079869261553502
-0.5409406600192525 0.7586341656486598 -0.3631217496219371
-0.5878695174168295 0.773945964165036 -0.2354083155811534
-0.6239232610583284 0.7716591873599536 -0.1235389123851926
-0.6551576607701658 0.7549930323679608 -0.02745834317643291
-0.6838573658269167 0.7275911727788296 0.05431563769852497
-0.7112402439304627 0.6919405831484505 0.1239174919287734
-0.7378828046393238 0.6495380593055092 0.1833828676055584
-0.7639267918566666 0.6012021375499905 0.2344607568206304
-0.7892203906949474 0.5473060531271363 0.2785448960611377
-0.8134006522872537 0.4879815542197842 0.3166281440426816
-0.8359443794207185 0.4233005579540085 0.34930449775337
-0.8562102764396397 0.3534309077384491 0.3768163424990099
-0.8734873981807809 0.2787552786413518 0.3991431570864661
-0.8870590056872708 0.1999324942592845 0.4161169525125971
-0.8962798510455817 0.1178927889131211 0.4275321261987167
-0.9006537618993813 0.03378531660031252 0.4332220603324681
-0.8998965794513354 -0.05109692925014112 0.4330995845218413
-0.8939744405039454 -0.1354004677484825 0.4271725799476712
-0.8831120480791813 -0.2177992064195386 0.4155437596937439
-0.867768489094192 -0.2970855359942497 0.3983943192845398
-0.8485821539673815 -0.3722578244753202 0.3759420701184962
-0.8262933158950055 -0.4425860100440885 0.3483632871306763
-0.8016601171250309 -0.5076278736657396 0.315681799425752
-0.7753824263984835 -0.5671778608245138 0.277653321649369
-0.7480360368799616 -0.6211577932755303 0.2336773060911001
-0.7200078988779386 -0.6694704859879503 0.1827509068224644
-0.6914180542376814 -0.7118263091529716 0.1234681330215852
-0.662008678517092 -0.7475435596995935 0.05406603295705294
-0.6309804448782906 -0.7753109153695904 -0.02750750243045549
-0.5967894720392981 -0.7928503070968869 -0.1234127894483682
-0.5568081526997787 -0.7966562242813472 -0.2351670499896765
-0.5048864126390242 -0.7832862160895232 -0.3627015495095833
-0.4144912197774267 -0.7566033409717149 -0.505715743434846
0 0 0
0 0 0
0 0 0
0 0 0
0 0 0
-0.3801048169452386 0.7282921076352615 -0.5701849998826828
-0.4547040108030952 0.7850963328553512 -0.4205567865302585
-0.5129058456418281 0.8120172208361379 -0.278488108492976
-0.5542552858931143 0.8178798505725704 -0.1545109319334124
-0.5869466948906398 0.8081667372245451 -0.0485808830795222
-0.6155843942428616 0.7869885348058286 0.04129043047515045
-0.642480517598216 0.7572109751306874 0.1176873980014904
-0.6687885143736225 0.7205320550329981 0.1831815512322324
-0.6949984024343232 0.6777878309406541 0.2399601567812899
-0.7211710403426568 0.6292659841410119 0.2897182282393246
-0.7470680823133264 0.5749444431101616 0.3336587594016293
-0.77222832794922 0.5146765998531209 0.3725203445133991
-0.7960166583290863 0.448348318040397 0.4066217718875136
-0.8176663312590448 0.3760157865923854 0.4359287773922285
-0.83633054587041 0.2980175220503309 0.4601486440217788
-0.8511526006042057 0.2150429457036623 0.4788483914432505
-0.8613535767831878 0.1281428083455458 0.4915785150229056
-0.8663254995226207 0.03868092118650773 0.497979834142954
-0.865712107860709 -0.05176140877145392 0.4978587177757981
-0.8594605328196596 -0.1415121667970243 0.4912248967364717
-0.8478327616476385 -0.2289491492425377 0.4782905971666765
-0.8313738155335877 -0.3126352609903476 0.4594309223709485
-0.8108427844956393 -0.3914280831204398 0.4351069231533965
-0.787121433144377 -0.4645435059899395 0.4057575390886982
-0.7611190041357457 -0.5315590978652209 0.3716756476016721
-0.7336874142379154 -0.5923568334288213 0.3328906127830291
-0.7055497138502657 -0.6470202629752044 0.2890750431727113
-0.677233498624472 -0.6957042152789487 0.2394795047263101
-0.6489938118799472 -0.7384839594608356 0.1828892390508044
-0.6207057007914066 -0.7751743223228089 0.117597631848699
-0.5917032964406966 -0.8050917182403714 0.04140693422578958
-0.5605254885762673 -0.8267296861275119 -0.04826181442757563
-0.5244419048714958 -0.8374069572335733 -0.1539814157343823
-0.4784450406882307 -0.8330724400254899 -0.2776340265724162
-0.4143085856596131 -0.8080070158929977 -0.4188950442729343
-0.3338621167609694 -0.7528826338436053 -0.5671894098522997
0 0 0
0 0 0
0 0 0
0 0 0
-0.4066689435707447 0.7687351492182729 -0.4936260129808936
-0.4430150945843435 0.8281439912241745 -0.3433877629877325
-0.4817239186723709 0.851858732008952 -0.2056180120491264
-0.5147381560230837 0.8529542259082216 -0.08668171225386233
-0.5432827505656795 0.8394353316296256 0.01386279011056267
-0.5695114869230484 0.8160258697674938 0.0987848476888164
-0.5949289567450383 0.7853237711006221 0.1712486816607865
-0.6203751106613049 0.7485579331473683 0.2340849050966624
-0.6462024741015244 0.7061092545775179 0.2895377057743081
-0.6724080151819123 0.6578697614091227 0.339226824031686
-0.6987131452592299 0.6034890840942002 0.384188581325756
-0.7246115852291632 0.5425573740501679 0.4249347554807262
-0.7494030669395506 0.4747598307474488 0.4615172221816304
-0.7722293736383145 0.4000176650881093 0.4936067889602341
-0.7921270078685692 0.3186107833763447 0.5205977066041487
-0.8081052331283963 0.2312632610530402 0.5417409309601895
-0.8192483743988491 0.139169087310989 0.5562949453139662
-0.824829222355445 0.04394402668265297 0.5636716033892657
-0.8244114942013496 -0.05249528190848044 0.5635511809996021
-0.8179175962200174 -0.1481073110489189 0.5559451683462381
-0.8056445736347145 -0.2409255103669525 0.5411947148923038
-0.7882239138164643 -0.3292443057686774 0.5199050382586766
-0.7665354964356138 -0.4117566352191833 0.4928283738353372
-0.7415967173806027 -0.4876205136371562 0.460717422560239
-0.7144503608063161 -0.5564495816781831 0.4241751348133214
-0.6860680450959084 -0.6182400040580459 0.3835230565175777
-0.6572740518587178 -0.673256244435344 0.3386987600834096
-0.6286829475830806 -0.7218956632540522 0.289178842229581
-0.6006372503662535 -0.764537962628823 0.2339157907705985
-0.5731280565695943 -0.8013658656554796 0.1712804137518445
-0.5456809360399066 -0.8321219736342115 0.09902190180821202
-0.5171928944861971 -0.8557492757924101 0.01430688204166251
-0.4857476375700268 -0.8698556020556262 -0.08602595054738743
-0.4487028661704265 -0.8699116921332852 -0.2047422422956438
-0.404571423602806 -0.8480005348987288 -0.3423697650428084
-0.3623946142714564 -0.7907712134599706 -0.4933062248847943
0 0 0
0 0 0
0 0 0
-0.2897899347585685 0.7599494757908281 -0.581806314814363
-0.3686428008257596 0.8274923846958846 -0.423507778759324
-0.4103747284819986 0.8694078456737053 -0.2751773611769902
-0.4422363987559211 0.8854282801873693 -0.1429815661539298
-0.4694639503647611 0.8824509585122223 -0.02973054201949182
-0.494259882333322 0.8668168376949755 0.06584632567070615
-0.5180921553305995 0.8426248820259828 0.1468462691919406
-0.5419206362619932 0.8120355173148959 0.2166110399137711
-0.5662909808573222 0.7758950312131322 0.2780313391300056
-0.591421155856924 0.7342437996323881 0.3333272552706314
-0.6172593789578034 0.6866671190617998 0.3840301116943752
-0.6435146764534951 0.6325358213334458 0.4310305046269648
-0.6696716938155053 0.5711895467577821 0.4746391515424227
-0.6950030542366677 0.5020997234413193 0.5146519428913615
-0.7185934497441151 0.4250280116147627 0.5504313248059677
-0.739389064315823 0.3401744071652437 0.5810208122605819
-0.7562814610968609 0.2482911127516721 0.6053014744156279
-0.7682249473787837 0.1507293665819573 0.6221825200651867
-0.77437255279581 0.04939139832181217 0.6307992067594218
-0.7742032390800487 -0.05342092249849924 0.6306786421287544
-0.7676085716935115 -0.1552406396555286 0.621833920321165
-0.7549146510234749 -0.2537062784339483 0.6047619316336803
-0.7368331274978772 -0.3468085156929346 0.5803454106517602
-0.7143557288803291 -0.4330616253540313 0.5496849290835414
-0.6886207312648637 -0.51157356550649 0.5139007448401108
-0.6607815970472157 -0.5820180780849719 0.4739437074020562
-0.6318988877515223 -0.6445340936005977 0.4304411665313213
-0.6028623675970117 -0.6995852527343399 0.3835849839239733
-0.5743377584723921 -0.7478050127347611 0.3330522513385422
-0.5467250819599526 -0.7898354332766154 0.277941852006177
-0.5201128439317673 -0.8261460726690943 0.2167147807387397
-0.4942128506333199 -0.8567972133796758 0.1471468430300468
-0.4682658008555748 -0.8810932015225524 0.06634689125969107
-0.4409294378408604 -0.8970723606950356 -0.02902430916280733
-0.4102097556224347 -0.900858971450998 -0.1420600927369522
-0.3734028423107832 -0.8862755136279508 -0.2740183046764207
-0.3252778824212263 -0.846274635157712 -0.4219165096274898
-0.2399753118016057 -0.7800835202418988 -0.5778248447174354
0 0 0
0 0 0
-0.3179836891611798 0.7900925748912538 -0.5240611572413605
-0.3460144158791981 0.8644908366891423 -0.3645951416081725
-0.3731156729799505 0.9017915020315204 -0.2180751738287788
-0.3971709298881952 0.9132671129485622 -0.09054519787566709
-0.4192848096175674 0.9076830859726607 0.01765400416639271
-0.4405790556039857 0.8910714040908788 0.1090038924745775
-0.4618978781339841 0.8669967471804897 0.1869946270719361
-0.4838076852040559 0.8371866993909232 0.2550461803290231
-0.50663600034052 0.8021535969574638 0.3160214708641843
-0.530502675919985 0.76166067905915 0.3720751547965673
-0.5553310882056239 0.7150398450415573 0.4246473860455312
-0.5808426523931985 0.6614148316808637 0.4745020901886607
-0.6065437699726534 0.5998823703734506 0.5217717861503155
-0.6317168478743543 0.5296875521025233 0.5660078809162694
-0.65542923796226 0.450408354109623 0.6062547555050359
-0.6765748277457407 0.3621405519621712 0.6411713679550536
-0.6939592651733882 0.2656514863210948 0.6692158292325455
-0.7064292839805502 0.162456378393714 0.68888721272348
-0.7130300454630427 0.05477309851337926 0.6989907452507607
-0.7131577741462701 -0.05466416134264891 0.6988689567003544
-0.706667041971872 -0.1629091410735636 0.6885363487466714
-0.6939004109422326 -0.2671588189974736 0.6686765923270196
-0.6756315493296021 -0.365072199535057 0.6405031605520121
-0.6529405076813447 -0.4549805345536241 0.6055257274518776
-0.6270576193725588 -0.5359583185174646 0.565285257899718
-0.5992139422611262 -0.6077683084474961 0.5211145120285445
-0.5705239431146558 -0.6707216297522556 0.473956670715143
-0.5419089173384788 -0.7254994479308472 0.4242467163821931
-0.5140551195680706 -0.7729700055698068 0.3718396220620778
-0.4873925430611207 -0.814012796800872 0.315961509701475
-0.4620778584270482 -0.8493377272802924 0.255165588921821
-0.4379663355918887 -0.8792647449725074 0.1872938790688145
-0.4145625226688026 -0.9034110391310625 0.1094824605798201
-0.390954386222777 -0.9202279080682594 0.01831024591549857
-0.3657735497526549 -0.9263693555742296 -0.08971915823461653
-0.3373078560095853 -0.9160165239100045 -0.2171108891742833
-0.3041989305488686 -0.8804823266440006 -0.3636122703106858
-0.2697458972413058 -0.8081101055442734 -0.5236365230183103
0 0 0
0 0 0
-0.2990461393049649 0.8303844277898803 -0.4701415836222827
-0.3114919013432885 0.8976340016326793 -0.3118108312910979
-0.3288282600699887 0.929082191090211 -0.1693465605743323
-0.3467432781487537 0.9367907287680265 -0.04682125108244457
-0.3645736601939446 0.9294424907064683 0.05676885380334801
-0.3826065402345977 0.9125277434268907 0.1445868349675635
-0.4012455079495247 0.8890758163021866 0.2203321021025485
-0.4208082462391453 0.8604120455970209 0.287422218502127
-0.4414923174127571 0.8267556743834654 0.3486539667639737
-0.4633681777031926 0.7876342761742191 0.4061061177666941
-0.4863640725606771 0.7421605836611254 0.4611373515363608
-0.5102394447477006 0.6892327139593927 0.5144064298118048
-0.5345531496990933 0.6277103760298206 0.5658909912441434
-0.5586370603660632 0.5566031248211286 0.6149126736577463
-0.5815894826986799 0.4752852591336525 0.6601951196915486
-0.6023050478684491 0.3837254191301502 0.6999881656325164
-0.6195552304924287 0.2826900847632164 0.7322824812502607
-0.6321228403246739 0.1738582453242472 0.7551119289698978
-0.6389749844598197 0.05978321324520876 0.7669008649419103
-0.6394376713831731 -0.05633196056999467 0.7667764828386464
-0.6333231044619775 -0.1710193094987129 0.7547544243879766
-0.6209686959854769 -0.2810000997372779 0.7317354867393925
-0.6031755422339974 -0.3835863703631762 0.6993144941457503
-0.5810685351902215 -0.4769327361619961 0.6594653308468319
-0.5559222383471558 -0.560103345497538 0.6141943562697014
-0.5289976068741234 -0.6329802036517633 0.5652411818917847
-0.5014193758758313 -0.6960735446223062 0.513867911017247
-0.4741031457336572 -0.7502975470662938 0.4607383184322227
-0.4477246267625694 -0.7967550553063335 0.405862095340423
-0.4227147932284382 -0.8365467970932046 0.3485708821157307
-0.3992629436927754 -0.8705935136160207 0.2874996275536554
-0.3773119552961017 -0.8994367780741548 0.2205655699292509
-0.3565363636464416 -0.9229659063006814 0.1449681247872555
-0.3363110889719344 -0.9400072557634407 0.05728185180837253
-0.3157302440677817 -0.9477229264200897 -0.04621328508816089
-0.2938871739164349 -0.9408285314671285 -0.1687364909698455
-0.2710612498179575 -0.9107784031575225 -0.3114618743746332
-0.2525507370383963 -0.8452742025356236 -0.47088177682846
0 0 0
0 0 0
-0.2495672881928011 0.8707766406769586 -0.4236321644014313
-0.2616633110348358 0.9275116315538718 -0.2669353573256288
-0.2762797189050775 0.9523738822851021 -0.1290484609088113
-0.2909390175446837 0.9566750392588207 -0.01128527045611225
-0.305611265314877 0.948048667418137 0.08834862035897224
-0.3206669502684653 0.9311911322222456 0.1733660355322619
-0.3364459146786583 0.9085875264592873 0.2475335396640911
-0.3531945986034832 0.8812013170676338 0.3142257378312465
-0.371070511846565 0.8490001923652792 0.3761719667939732
-0.3901418264174539 0.8113111389073949 0.4353890113041881
-0.4103695115850223 0.7670557173156757 0.4931758210768282
-0.4315747316895771 0.7149263502991469 0.5501123199992981
-0.4533985629241151 0.6535559486413846 0.6060481541377769
-0.4752644643028239 0.5817180374144049 0.6600968216236784
-0.4963581809473569 0.498573096037407 0.7106711082591614
-0.5156434483301463 0.4039468043140196 0.7556049321429062
-0.5319308069488227 0.298589780138535 0.7923974759018323
-0.5440070539744916 0.1843376612490971 0.8185816708619897
-0.5508126991321117 0.06408440495357778 0.8321649833515844
-0.5516296865949268 -0.05848195826313513 0.8320363870798506
-0.5462244183587692 -0.179352720989631 0.8182123723473258
-0.5348974664317395 -0.2947622424579434 0.7918332657991014
-0.5184236175431511 -0.4016791988472549 0.7549111033670781
-0.4979061657813039 -0.4980996740704411 0.7099198298173397
-0.4745945911891131 -0.5831038567576722 0.6593556447383809
-0.4497158122405842 -0.6567191573335913 0.6053723123928354
-0.424351458549545 -0.7196735298560072 0.5495414907461197
-0.3993701946103589 -0.7731210769338845 0.4927344599857755
-0.3754057434737545 -0.8183936841037315 0.4350888479219372
-0.3528623737775661 -0.8567967332032458 0.3760152964233059
-0.3319282368064924 -0.8894361812589757 0.3142084102597871
-0.3125796896734938 -0.917041492764878 0.2476465993127821
-0.2945646870129111 -0.9397321296093276 0.1735948436587415
-0.2773643159272641 -0.9566645408806373 0.08866787733920162
-0.2601635453797602 -0.9655027770528759 -0.01092323938295172
-0.2419634793658434 -0.9617067544123227 -0.1287392448746326
-0.2223058922940052 -0.9377367022897968 -0.2668894292212081
-0.2043813085599131 -0.8821049430570994 -0.4244044652752469
0 0 0
-0.08144447166588152 0.8288224017642719 -0.5535523682261405
-0.1678989679881004 0.9067110168289407 -0.3868915461851788
-0.2000212617836576 0.9517246106616015 -0.2328341905637915
-0.2176646630360947 0.9710479080456181 -0.09842791649532812
-0.2310165507984495 0.9728204000010402 0.01586891927646396
-0.243188939518885 0.9634140517528238 0.1126610162429166
-0.2553397169939728 0.9468303481628427 0.1957394204631944
-0.2679924206910161 0.9251199208493702 0.2689483119482695
-0.2814289593336096 0.8989631339511923 0.3356531314393646