# OOMMF: rectangular mesh v1.0
# Segment count: 1
# Begin: Segment
# Begin: Header
# Title: 
# Desc: time = 3e-09
# Desc: stepsize = 8.893145657338313e-14
# Desc: step = 19198
# meshunit: m
# valueunit: (none)
# valuemultiplier: 384000.0000000001
# xmin: 0
# ymin: 0
# zmin: 0
# xmax: 9.357999999999999e-08
# ymax: 9.357999999999999e-08
# zmax: 2.3395e-08
# ValueRangeMaxMag: 1
# ValueRangeMinMag: 0
# meshtype: rectangular
# xbase: 1.16975e-09
# ybase: 1.16975e-09
# zbase: 1.16975e-09
# xstepsize: 2.3395e-09
# ystepsize: 2.3395e-09
# zstepsize: 2.3395e-09
# xnodes: 40
# ynodes: 40
# znodes: 10
# End: Header
# Begin: Data Text
0 0 0
0 0 0
0 0 0
0 0 0
0 0 0
0 0 0
0 0 0
0 0 0
0 0 0
0 0 0
0 0 0
0 0 0
0 0 0
0 0 0
0 0 0
0 0 0
-0.8357925468122649 0.02953150581789872 -0.5482505894727291
-0.8456242211992029 0.04820895492739563 -0.5315971907243766
-0.8561558396281365 0.02905935374942315 -0.5158999246271568
-0.8616893691881105 -0.005806027197213385 -0.5074029178831956
-0.8604274242185495 -0.04518490620254736 -0.5075657316093144
-0.852444580083227 -0.08041807751543356 -0.5165957517202903
-0.8397452369425228 -0.1001966402865383 -0.5336558538118321
-0.828480437647609 -0.0818266575700361 -0.5540077278758316
0 0 0
0 0 0
0 0 0
0 0 0
0 0 0
0 0 0
0 0 0
0 0 0
0 0 0
0 0 0
0 0 0
0 0 0
0 0 0
0 0 0
0 0 0
0 0 0
0 0 0
0 0 0
0 0 0
0 0 0
0 0 0
0 0 0
0 0 0
0 0 0
0 0 0
0 0 0
0 0 0
0 0 0
-0.7799925827221361 0.2403621078181656 -0.5777868361460476
-0.8080328982786591 0.2701324523861764 -0.5235563899593045
-0.8452172275177351 0.2529373583326215 -0.470776519239169
-0.8820729120546645 0.2047687796745754 -0.4242842498726399
-0.9143810589356987 0.1229134982359878 -0.3857454484644267
-0.9277190801258021 0.08226243798450118 -0.3641019083544893
-0.9360758420502552 0.04329359653672882 -0.3491241647735372
-0.9399566897368032 0.0003806978631618043 -0.3412935342021104
-0.9388373094610346 -0.04437411700614572 -0.3414900351458142
-0.9327348711492838 -0.08757411678859504 -0.3497662565354551
-0.9221734389015354 -0.1270765792491425 -0.3653049296010826
-0.9064345892290728 -0.168307814720231 -0.3873613493280165
-0.8704464844777253 -0.2499400149816799 -0.4240906820142672
-0.8300089838429217 -0.2993725657957509 -0.4705965932610525
-0.789680428136002 -0.3182536314127383 -0.524518300454374
-0.7595138318404075 -0.2899898270089939 -0.582275398307703
0 0 0
0 0 0
0 0 0
0 0 0
0 0 0
0 0 0
0 0 0
0 0 0
0 0 0
0 0 0
0 0 0
0 0 0
0 0 0
0 0 0
0 0 0
0 0 0
0 0 0
0 0 0
0 0 0
0 0 0
0 0 0
0 0 0
-0.7527271441315446 0.3342194306306882 -0.5671853477272368
-0.7906290932341863 0.3627587970210671 -0.4932663500741926
-0.8461565430680691 0.3256536399026032 -0.4218634985884414
-0.8803818307982231 0.3045817216831063 -0.3635351521062615
-0.9106969954998041 0.2714486943741636 -0.3113624715828661
-0.9376775196462257 0.2226970014156852 -0.26677127789656
-0.9590868839533396 0.1616538423510283 -0.2324228566252065
-0.9715874423164101 0.1082516064639785 -0.2104743015929109
-0.9787918653816265 0.057638491191655 -0.1965815062408078
-0.9818196271389737 0.006782052310972322 -0.1896950804083676
-0.9808008441044721 -0.04452509091846805 -0.1898610557293321
-0.9757195459205045 -0.09556757014932156 -0.1970741161198956
-0.9663832770635528 -0.1465474268718206 -0.211251540797118
-0.951514332894063 -0.2004529021426328 -0.2333218985002517
-0.9272591613541814 -0.2620507977343634 -0.2674319111316432
-0.8973412063193963 -0.3118304918373851 -0.312314751175324
-0.8641617633810824 -0.3462977701150463 -0.36510587659396
-0.8271299956612488 -0.3688649857787605 -0.4240219246027927
-0.7683291356259607 -0.4068323124667459 -0.4941232729605269
-0.7278604997502164 -0.3801939607312539 -0.5706764802642968
0 0 0
0 0 0
0 0 0
0 0 0
0 0 0
0 0 0
0 0 0
0 0 0
0 0 0
0 0 0
0 0 0
0 0 0
0 0 0
0 0 0
0 0 0
0 0 0
0 0 0
0 0 0
0 0 0
-0.7564120815678675 0.4148231277764071 -0.5057297059892404
-0.8078327713901637 0.4146556520621247 -0.4188876981734134
-0.8478406026197087 0.4049323647169867 -0.3423391484393185
-0.8861329925191544 0.3737778307718593 -0.2739679776771933
-0.9158910179442121 0.3376947210474588 -0.2170389795078135
-0.940721418708886 0.2942834999590884 -0.1686429187193138
-0.9616204382836743 0.2423671057734312 -0.1286247204627631
-0.9779849634909239 0.1841681481832216 -0.0981198470260657
-0.9889861755265003 0.1261026168112137 -0.07748854528786873
-0.9955260449315733 0.06887355565152266 -0.06468637565063282
-0.998214990873187 0.01184233331548268 -0.05853709198181519
-0.9972510966033385 -0.04524654475932452 -0.05867708676119036
-0.9926140371632953 -0.1023719859700254 -0.0650949284886041
-0.9840548038785913 -0.1597876277787048 -0.07812846454603131
-0.9708937857953184 -0.2181242087524752 -0.09892970362909295
-0.9521841090416052 -0.2766912274056765 -0.1295661497667656
-0.9288578515292127 -0.3291880801234489 -0.1698773073637917
-0.9015345926700237 -0.3734196335969865 -0.2186164574399327
-0.8691190276907521 -0.4106188602893897 -0.2757249848681178
-0.8278202150589564 -0.4431966420154428 -0.3439337553163075
-0.7847412192688287 -0.4548169614142792 -0.421097079531969
-0.7304614465157783 -0.4559004597953314 -0.5085084521544173
0 0 0
0 0 0
0 0 0
0 0 0
0 0 0
0 0 0
0 0 0
0 0 0
0 0 0
0 0 0
0 0 0
0 0 0
0 0 0
0 0 0
0 0 0
0 0 0
-0.6510315515201004 0.5040801724732249 -0.5675042719175722
-0.7026513016681164 0.5398288044548744 -0.4635364172801551
-0.7830747529327003 0.5052076598805647 -0.3627108376067543
-0.8328768548047805 0.4787878986486933 -0.2776297765695618
-0.8697297777762283 0.4490658083192817 -0.2047193528903949
-0.9006917710631366 0.4105916103559037 -0.1420171223638021
-0.9262180517963252 0.3661723125716728 -0.08965465984840004
-0.9475894429946714 0.3161433290881419 -0.04612638071770481
-0.9653895578112227 0.2605879346057765 -0.01081341791232999
-0.9794936482743349 0.2008263725741695 0.01615428949021604
-0.9896119568636128 0.1394460760913204 0.03497094072660759
-0.9958846244915738 0.07765295948113402 0.04673149457376376
-0.9985054352456711 0.01573112789046322 0.05233953954846974
-0.9975645130388913 -0.04624634393679761 0.05221415514932971
-0.9930473943046625 -0.108200913522644 0.04636199928373119
-0.9848352192119127 -0.1700527374384876 0.0343752453009421
-0.9727112914236825 -0.2315103550351257 0.01535249323013526
-0.9565341498264327 -0.2913806969362429 -0.01181988446526988
-0.9366199888148582 -0.3471296717903016 -0.04737074535208143
-0.9130684184505271 -0.3974992649407525 -0.09110651787777747
-0.8852022736630855 -0.4425042452991921 -0.1435511323323346
-0.8516040975964059 -0.4819291426941021 -0.2061910822008035
-0.8117325883138821 -0.5130459947503624 -0.2790591556280781
-0.7583135526195444 -0.5410149818394353 -0.3636802790072624
-0.67337147210362 -0.5768240475827668 -0.4624336478752782
-0.6179441666706635 -0.5434705703939747 -0.5681414841334386
0 0 0
0 0 0
0 0 0
0 0 0
0 0 0
0 0 0
0 0 0
0 0 0
0 0 0
0 0 0
0 0 0
0 0 0
0 0 0
-0.6295428318282157 0.5499313609510179 -0.5488636635233485
-0.6929144907378394 0.5738898549751053 -0.4364859022719663
-0.7444469888793045 0.5795828864808595 -0.33148508027821
-0.7964263333529463 0.5571283189362681 -0.2351874396757374
-0.837189236108978 0.5247877919071758 -0.1539868708963723
-0.8696494856586108 0.4861188190119596 -0.08601317280585996
-0.8968789949622302 0.4413248115259888 -0.02899101804162149
-0.9200492726030288 0.3913719817579926 0.01836594341324098
-0.9398459449512061 0.3367480630890672 0.05736150071725171
-0.9565234716346632 0.2778169364916896 0.08877273235821649
-0.9699729032489445 0.2154185574088707 0.1129044378520801
-0.9799537262497056 0.1508804158542087 0.1300991718689147
-0.9863336273963039 0.08522011392533589 0.1410088920947941
-0.9890661421109593 0.01902678203142694 0.146240035883719
-0.9881335529103968 -0.04733056937523502 0.1461228894297243
-0.9835267456064225 -0.1135327219152238 0.140660803820251
-0.9752487329487393 -0.179198456586154 0.1295292323725357
-0.9633416056744263 -0.2437233285508553 0.1121244393373237
-0.9479463600045204 -0.3060881741990697 0.08779366816382254
-0.9293135381069455 -0.3649903481954846 0.05619958732312075
-0.9075301976135318 -0.4196396315014399 0.01707395949622838
-0.8822755488083148 -0.4697559673065517 -0.03031809946009367
-0.8527559018689965 -0.5149667179828809 -0.08727342778608881
-0.8176564540688143 -0.5544195411946661 -0.1551028544582852
-0.7736924101672429 -0.587968261431918 -0.2359944448463346
-0.7177931068730521 -0.6121206312886485 -0.3317851540927004
-0.6620829313884424 -0.6088048821223642 -0.4370386796017724
-0.5949495063155811 -0.5866480113485564 -0.5494353426160625
0 0 0
0 0 0
0 0 0
0 0 0
0 0 0
0 0 0
0 0 0
0 0 0
0 0 0
0 0 0
0 0 0
-0.5867777311308864 0.5949124042178058 -0.5493369872461517
-0.6555612149550497 0.6229301177643564 -0.4268460633867241
-0.7089907929599574 0.6315279423776908 -0.313854287041312
-0.7530272463435946 0.6227147815939993 -0.2125470937192986
-0.7926009892479874 0.597113309676367 -0.1234478321010389
-0.8264884159667797 0.5608795721621267 -0.04828047021263064
-0.8555167399131316 0.5175774456427876 0.01430718317117457
-0.8808712692757374 0.4686800690991993 0.06636866575214669
-0.903202488342838 0.4150046474098199 0.1095281136492183
-0.9227741300131271 0.357003276670163 0.1450398752939435
-0.9395607871761498 0.2950520365124784 0.1736946255667464
-0.953327104817811 0.2297514046451073 0.195912539882698
-0.9637509949999912 0.1619657320849865 0.2120167947750852
-0.9705521040441306 0.09255655223185673 0.2224003101941676
-0.9735404581697717 0.02224374651755781 0.2274295320477376
-0.9726186738062815 -0.04836640555587832 0.2273182926579244
-0.9677787032856122 -0.1186996727179659 0.2220692891046986
-0.9591061728214177 -0.1881327164728017 0.2114744198441421
-0.946790252879912 -0.2559206825240286 0.1951738233166193
-0.9311214857924967 -0.3211835402768967 0.1727828468071174
-0.9124331586217012 -0.383056432709974 0.1439913205965337
-0.8909557656180045 -0.4409616488935655 0.1084004055209324
-0.8666826594929978 -0.4945757104258534 0.06523828930088435
-0.8392832960341169 -0.5435328049929798 0.01325288250049251
-0.8079954846195675 -0.5871316812046045 -0.049190301485599
-0.7714651993361074 -0.6240428373092111 -0.1241450096313539
-0.7286845390479862 -0.6508823385949667 -0.213004750786386
-0.6808215939900797 -0.6616356729742209 -0.3141976979622165
-0.6229872803669285 -0.6554404379217684 -0.4269481008716841
-0.5499882592729376 -0.6294142145903391 -0.5489541521234261
0 0 0
0 0 0
0 0 0
0 0 0
0 0 0
0 0 0
0 0 0
0 0 0
0 0 0
-0.5435990865321936 0.6179283023055939 -0.5680357790941433
-0.6089252120086595 0.6620455370912298 -0.4369276747904548
-0.6617493987151335 0.6807628389990544 -0.314085482533189
-0.7050961181465005 0.6789545107407544 -0.204597743192632
-0.7420183451358213 0.6614036242583143 -0.109334446995735
-0.7750401761691456 0.6313107246436827 -0.02755892366490006
-0.8048247571935671 0.5920687549692657 0.04137269144567413
-0.8318603465292402 0.5460823149688608 0.09900741967399125
-0.8565436058039164 0.4946498265650799 0.1471550217816592
-0.8790228019596555 0.4384372463385368 0.1873277733227959
-0.8992108133690264 0.3778135954529742 0.2206281945062996
-0.9168361082910124 0.3131071672348866 0.2477406958090157
-0.9315017988077312 0.2448019392873835 0.2690286403695643
-0.9427655220684698 0.173592473053855 0.2847083133630128
-0.9502274220281344 0.1002900064536773 0.2949741701086497
-0.953591913422234 0.02572625099405524 0.3000010377740599
-0.9526984944261198 -0.04927870703481808 0.2998952946466156
-0.9475351475604681 -0.1239045119157357 0.2946605098490206
-0.9382433036223442 -0.1973091592731871 0.2841981683169985
-0.9251120880490635 -0.2686254967722501 0.2683430025720117
-0.9085490745251916 -0.3370061201270575 0.2469118348243442
-0.8890127846263999 -0.4017309593679977 0.2197009445953333
-0.8669143262483092 -0.4623090439651398 0.1863595954424612
-0.8425268145451913 -0.5184310898558165 0.1462113943687097
-0.8159140394273072 -0.5697809516558692 0.09815267390930292
-0.786862787576327 -0.6157869168370983 0.04066234843035964
-0.7548512597228105 -0.6552945961061412 -0.02808145311366021
-0.7192036190438175 -0.6860927786792782 -0.1096487728997535
-0.6790340595513913 -0.704987402587635 -0.2047083490283098
-0.6316049921968715 -0.7088771387741919 -0.3139559458830244
-0.5739652365399681 -0.6927944834467281 -0.4365772680172418
-0.5041558006176607 -0.6509039479329284 -0.5675834557744724
0 0 0
0 0 0
0 0 0
0 0 0
0 0 0
0 0 0
0 0 0
0 0 0
-0.5769398038381385 0.6733551996623351 -0.4623129219856463
-0.6122321922055505 0.7177542207079907 -0.3316634159551675
-0.6509900175991851 0.7286237439081125 -0.212883622666324
-0.686197856762214 0.7191214842985275 -0.1095298689637951
-0.7179062840468343 0.6958189504798685 -0.02113185933986156
-0.7472491899953642 0.662346616356532 0.05399636888092309
-0.7748792194579142 0.6210839666577876 0.1175453172734715
-0.8010722079611958 0.5735479995452272 0.1712483864152936
-0.8258572920505912 0.5205746844648985 0.2167065551872748
-0.8490583432539041 0.4625802725058192 0.2551850725245833
-0.8703288416376996 0.3998027211551579 0.287550850408254
-0.8891919194581909 0.332500046963579 0.3142951624500054
-0.905088810004596 0.2610958151392941 0.3356236304571105
-0.9174432666466774 0.1862383622022082 0.3515865824073952
-0.9257367786336055 0.1087699524492299 0.3621885063461655
-0.9295761579216379 0.02966055149335177 0.3674349171060851
-0.9287411611659989 -0.05004882459886552 0.367334957106322
-0.9232108183943197 -0.129285679640178 0.3618936277964385
-0.9131696591258444 -0.2069815000458996 0.3511122787524497
-0.8989916097185277 -0.2821191726363523 0.3349968030991783
-0.8811968813685395 -0.3538018400486531 0.3135543242319372
-0.8603821685090802 -0.4213311354056594 0.2867448316001354
-0.8371379108235536 -0.4842478678171442 0.2543700469326627
-0.8119727989741662 -0.5422818228012013 0.2159411919608302
-0.7852501841618474 -0.5952158401038131 0.1705879596082202
-0.7571275254505057 -0.6426976809698306 0.1170367509852994
-0.7274969064962501 -0.6840082407481624 0.05367473918883762
-0.6959222887009455 -0.7178026964940626 -0.02124751738649407
-0.6615035432212281 -0.7419134517004823 -0.1094417310336244
-0.6228111694148503 -0.7529196135527536 -0.2126459564150656
-0.5796762167605964 -0.744334575024197 -0.3315743116492429
-0.5399203693819856 -0.7025310511726606 -0.4636120327004639
0 0 0
0 0 0
0 0 0
0 0 0
0 0 0
0 0 0
0 0 0
-0.4560214851631748 0.7304678364401386 -0.5083907404703933
-0.5411251679624395 0.7582961564886478 -0.3635525981920152
-0.5880735436281138 0.7736519801051135 -0.2358646242320143
-0.6241458413331252 0.7714026362906456 -0.1240158920074616
-0.6553970880831202 0.754766993680785 -0.02795428736769712
-0.6841113954908471 0.7273906955447974 0.0537993921380258
-0.7115063805769786 0.691763399381324 0.1233777519435396
-0.7381584591400259 0.6493847067981139 0.1828157317539972
-0.7642094844289159 0.6010758158288425 0.2338626253478339
-0.7895080142823566 0.5472122687282219 0.2779133468137892
-0.8136917673224243 0.4879275657204713 0.3159626534921556
-0.8362384927002566 0.4232946332079437 0.3486069948003838
-0.8565080536958498 0.353481401756656 0.3760915481186678
-0.8737907465314398 0.2788695753098025 0.3983986586856925
-0.8873709798540523 0.2001158990958273 0.4153629389364523
-0.8966043420792725 0.1181475267640271 0.4267807583339925
-0.90099497581484 0.03410982219056389 0.4324865010454584
-0.9002583637913409 -0.05070825088347655 0.4323928210737029
-0.8943595893214865 -0.1349569178712293 0.4265062195412858
-0.8835217332718233 -0.2173129371812067 0.4149270227040282
-0.8682019547878727 -0.2965703238792876 0.3978333931392013
-0.8490367307186135 -0.371727718750604 0.3754399192988404
-0.826764734297195 -0.4420541046552351 0.3479198796848867
-0.8021430214555088 -0.5071053761308384 0.3152946409779709
-0.7758709816932209 -0.5666735128849731 0.2773181378146787
-0.7485245331382717 -0.6206776196511971 0.2333887652700013
-0.7204912963283957 -0.669017814280929 0.1825033043256905
-0.6918924263548378 -0.7114020158615944 0.1232560026159973
-0.6624715461811065 -0.7471465026402927 0.05388463689023695
-0.6314310161112262 -0.7749385093314328 -0.0276618626979548
-0.5972288343632751 -0.7924991572284543 -0.1235427262013944
-0.5572394621069744 -0.7963228599281534 -0.2352744878361775
-0.5053154848123167 -0.7829684333350743 -0.3627901503758225
-0.4149297150494551 -0.7563034426360468 -0.5058047392283322
0 0 0
0 0 0
0 0 0
0 0 0
0 0 0
-0.3803120707084552 0.7278918663335568 -0.5705577620179201
-0.454926540562687 0.784747645552194 -0.4209667154205344
-0.513148782210426 0.8117144194787199 -0.2789229795593779
-0.5545190694842392 0.8176150537787429 -0.1549652393690799
-0.5872306624918043 0.8079318861908005 -0.04905319872965613
-0.6158872639597834 0.7867772088865316 0.04079830473010218
-0.6428006050412791 0.7570193091752999 0.1171714457293943
-0.6691238418152478 0.7203590451870089 0.1826366073153559
-0.6953467857650122 0.6776353354402721 0.2393808674247288
-0.7215302387122685 0.6291385713575803 0.2890999354098142
-0.747436041673202 0.5748490853785631 0.3329983373041435
-0.7726034904514836 0.5146221689481961 0.3718169842398782
-0.7963982943457308 0.448344830428873 0.4058776537220486
-0.8180548170404683 0.376073382601797 0.4351495458061835
-0.8367275122851165 0.2981452130337668 0.4593435556641773
-0.8515608683613732 0.2152472539085303 0.4780300274673758
-0.8617768328380183 0.128426506559493 0.4907619818166419
-0.86676771095329 0.03904213939925246 0.4971815026727387
-0.8661767625010384 -0.05132946907269476 0.4970946607115531
-0.8599498565142581 -0.1410207824951617 0.4905093099886672
-0.8483471063401804 -0.2284129445935532 0.4776344982372445
-0.831911363503021 -0.3120706286363465 0.4588413734800507
-0.8113996367774354 -0.3908514909489139 0.4345868629635001
-0.7876920304202092 -0.4639700119719536 0.4053061721751011
-0.7616967671072248 -0.531001280759946 0.3712892064276825
-0.7342654576650048 -0.5918242068585108 0.3325632960149013
-0.7061215274168915 -0.6465191237213389 0.2887999501056528
-0.677793516634654 -0.695237831189119 0.2392494658123158
-0.6495378479391111 -0.7380529905741079 0.1826974745289152
-0.6212312468321688 -0.7747773901823186 0.1174382119313122
-0.5922097284952886 -0.8047260475887503 0.04127500221350151
-0.5610142352036445 -0.8263917721948477 -0.0483701017936515
-0.5249166645292649 -0.8370932563862158 -0.1540693850581342
-0.4789121518067059 -0.8327800515040967 -0.2777058455789216
-0.4147772383823979 -0.8077338210176248 -0.4189581326387379
-0.3343409441064529 -0.7526244201123888 -0.5672500465795446
0 0 0
0 0 0
0 0 0
0 0 0
-0.4069348674335869 0.7683609158696031 -0.4939893891885059
-0.4432948579165364 0.8278262109704944 -0.3437927186183434
-0.4820238336581982 0.8515854775557274 -0.2060465923077511
-0.515060305699047 0.8527142510962952 -0.08712799475764152
-0.5436276387919531 0.8392195627555656 0.01339835175841035
-0.5698788453081534 0.815828144552369 0.09829822087140695
-0.5953179792167012 0.7851410275310668 0.1707339172771576
-0.6207845305924026 0.7483901693046422 0.2335352672838486
-0.64663063034071 0.7059594233410462 0.2889465703225301
-0.6728529883380073 0.6577436218584324 0.3385885172139837
-0.6991729849483647 0.6033949486167587 0.3834992478508558
-0.7250846251111206 0.5425056450285444 0.4241932478713304
-0.7498882767930236 0.474762232965701 0.460725942918141
-0.7727266832325504 0.4000861140408247 0.4927723352341657
-0.7926374997777245 0.3187559207579299 0.5197311390785444
-0.8086311145022228 0.231492801982173 0.5408574704017083
-0.8197926500602636 0.1394862590223151 0.5554129944925029
-0.8253950764091132 0.04434645478049284 0.562811122658388
-0.8250014689775973 -0.05201590497666753 0.5627316605756819
-0.8185327639601404 -0.1475646061791701 0.5551835744390851
-0.8062839140940871 -0.24033692675997 0.5405038496705559
-0.7888840770119978 -0.3286291031497265 0.5192926203981083
-0.767210997467029 -0.411133789566804 0.4922969555482592
-0.742280499281753 -0.4870069577371878 0.4602650144227778
-0.7151345627639587 -0.555859030646671 0.4237962897300357
-0.6867448150226096 -0.6176824166742566 0.383210113607419
-0.6579362647962524 -0.6727378305197248 0.338443027485527
-0.629324767079703 -0.7214192742265493 0.2889715700800266
-0.6012545105981896 -0.7641037056793897 0.2337488833178794
-0.5737185002887831 -0.8009718055196331 0.1711468643855555
-0.5462443542627505 -0.8317648320492088 0.09891597243226896
-0.5177312332656951 -0.8554250679312692 0.01422403796273451
-0.4862650962839724 -0.8695601665857983 -0.08608933048419504
-0.4492059089056826 -0.8696409651722488 -0.2047892650958506
-0.4050682462079939 -0.8477500683543374 -0.3424025956665567
-0.3628929977837514 -0.7905337902210307 -0.4933203813732949
0 0 0
0 0 0
0 0 0
-0.2900904935330559 0.7595732332667555 -0.5821477551845702
-0.3689572487598606 0.8271620802881909 -0.4238790411436573
-0.4107069770729345 0.8691248036403998 -0.2755754972428571
-0.4425906904331038 0.8851837171001522 -0.1433989808984205
-0.4698431030506667 0.8822344018012378 -0.03016486025380698
-0.4946656528661088 0.8666197016055811 0.06539254287454672
-0.5185255127878539 0.8424416300378849 0.1463673206942183
-0.542381867641729 0.8118638363774811 0.216099562322342
-0.5667797308570297 0.7757357397066155 0.2774793664967944
-0.5919364837350902 0.7341007382648653 0.3327270732932868
-0.617799872344544 0.6865470467068997 0.3833751040288067
-0.6440786540953208 0.6324482202560542 0.4303160885136749
-0.6702574880234812 0.5711462029414601 0.4738638144171855
-0.6956093501921525 0.5021139383454463 0.5138182799827935
-0.7192196062271273 0.4251133559514582 0.5495468975530513
-0.7400353280727318 0.3403430251518657 0.5800985592421001
-0.7569489572967415 0.2485517527313529 0.6043594148034325
-0.7689153740203016 0.151085485540722 0.6212425642646704
-0.7750875633804865 0.0498398132227329 0.6298851181849137
-0.7749436288019916 -0.05289039566858373 0.6298134471613168
-0.7683734675564167 -0.1546443357093285 0.6210373127182843
-0.7557009609312118 -0.2530647570163795 0.6040482484072636
-0.7376354181086044 -0.3461440257554522 0.5797226089998152
-0.7151665794173749 -0.4323955685189477 0.5491546558207686
-0.6894314461844652 -0.5109244780267636 0.5134593058510821
-0.6615830950186136 -0.5814004057553164 0.4735835476166218
-0.6326825639131711 -0.6439577774146263 0.4301524778813556
-0.603620803036081 -0.6990559567476184 0.3833571382898038
-0.5750652108143062 -0.7473247603151204 0.3328749103357668
-0.5474177760568372 -0.7894034261316673 0.2778057041685275
-0.5207691060697297 -0.8257595313362952 0.2166119446627913
-0.494833161857851 -0.8564521383221028 0.1470709920047414
-0.4688528184449622 -0.8807850193492531 0.06629316952862031
-0.4414880079822553 -0.8967964552398152 -0.02905953676783969
-0.4107468481739595 -0.9006111278077983 -0.142079636767283
-0.3739272772461789 -0.8860523624523078 -0.2740248206348151
-0.3258000552962192 -0.8460745783008231 -0.4219148396561373
-0.2405089754217304 -0.7799102151237944 -0.5778369052657899
0 0 0
0 0 0
-0.3183366011930539 0.7897405317966631 -0.5243774411417574
-0.3463773803961392 0.8641938985754795 -0.3649542656482064
-0.3734972744463138 0.901540461821108 -0.2184595653217253
-0.3975769515157623 0.9130504735985013 -0.09094723901793099
-0.4197194416031672 0.9074902464654756 0.01723493285031757
-0.4410454577224793 0.8908943948378404 0.1085637207767226
-0.4623983790975529 0.8668307872545231 0.1865264733909334
-0.4843438295703713 0.8370302160343758 0.2545416904999113
-0.5072085640828035 0.8020081241330944 0.3154717758303828
-0.5311116950913453 0.7615307951712692 0.3714716884811163
-0.5559759379437543 0.7149331320183425 0.4239827510288655
-0.5815221864824867 0.6613417467802013 0.4737710845907962
-0.6072565357269145 0.5998558626984315 0.5209725940999841
-0.6324613477253781 0.5297222523335336 0.5651433260829377
-0.6562041960269531 0.4505192051529096 0.6053333783172788
-0.6773793656224044 0.3623408796002226 0.64020799901245
-0.6947928958825464 0.265950704115442 0.6682312884111644
-0.7072916330640938 0.1628577603365577 0.6879068946417726
-0.7139203032167615 0.05527221138626281 0.6980421071134313
-0.7140739756901594 -0.054079798562479 0.6979783181657513
-0.7076054014195075 -0.1622588987680778 0.6877257052433825
-0.6948549454377232 -0.2664665046354699 0.6679612314409371
-0.6765941676603618 -0.3643629487161676 0.6398905952511263
-0.6539015563660323 -0.4542778354486677 0.6050160351611794
-0.6280067490145801 -0.535281791857052 0.5648724869370442
-0.6001410615734467 -0.6071325255734025 0.5207886352488479
-0.5714200694023492 -0.6701359113955022 0.473705567354167
-0.5427667918793082 -0.7249683825168303 0.424057842733717
-0.5148695703187243 -0.7724943611783016 0.3717012072990067
-0.4881606264544737 -0.8135905546089049 0.3158632809155724
-0.4627988661285486 -0.8489650516581666 0.2550990995146307
-0.4386417347967226 -0.8789368061150276 0.1872525549914745
-0.4151958938293844 -0.903122671435456 0.1094614547980392
-0.3915513639509889 -0.9199741374782412 0.01830616724728465
-0.3663417377672972 -0.9261458268312343 -0.08970863176264418
-0.3378566455751071 -0.9158197917773531 -0.2170875308017979
-0.3047391929564102 -0.8803097023562826 -0.363577848904012
-0.2702890996186076 -0.8079578524743981 -0.5235913590313737
0 0 0
0 0 0
-0.2994412816050087 0.8300692463505187 -0.470446559275154
-0.3118978535922358 0.8973731114417524 -0.3121557748719442
-0.3292550757918464 0.928863974916839 -0.1697139097628556
-0.347197956774466 0.9366030543269398 -0.04720484548309654
-0.3650617048633523 0.9292753033871737 0.05636809520409464
-0.3831325052372717 0.9123739939255834 0.1441637216462265
-0.4018131360387142 0.8889316274271676 0.2198789791372078
-0.4214204791538681 0.8602766280094025 0.2869301361838723
-0.4421512775652636 0.8266312482042258 0.3481135263670863
-0.4640751627908683 0.7875260678318076 0.4055082437707029
-0.4871195679305551 0.7420768533088535 0.4604741798650375
-0.5110431749572125 0.6891846808206993 0.5136724141432184
-0.5354041660820669 0.6277118603659488 0.5650842408861582
-0.5595338687711355 0.5566696993374443 0.6140363959388437
-0.5825301692542084 0.4754327552284828 0.6592588999509343
-0.6032873568877257 0.3839677691377619 0.6990086675305189
-0.6205765102169331 0.2830367305501774 0.7312831217294972
-0.6331798121108032 0.174311625232717 0.7541211990416766
-0.6400633270439776 0.06033704971814074 0.7659493310948864
-0.6405515344876704 -0.05569289061299233 0.7658929648460412
-0.6344547333350822 -0.170317611672972 0.753962268620071
-0.6221083879724885 -0.2802627166634737 0.7310499047689433
-0.604312033881547 -0.3828408964106452 0.6987415929665564
-0.5821897813662734 -0.4762040701409791 0.6590028391849733
-0.5570163854905453 -0.5594113879677509 0.6138335648260381
-0.5300539415996475 -0.6323388425547991 0.5649693860654166
-0.5024290546811201 -0.6954907708326397 0.5136707434717848
-0.4750596356728284 -0.7497763170820295 0.4606015815184603
-0.4486238614971579 -0.7962944961569713 0.4057729738234094
-0.4235551331868829 -0.8361434369363512 0.3485185820287167
-0.4000450254697269 -0.8702423599773147 0.2874755859165072
-0.3780385226455891 -0.8991321768058048 0.2205633787109613
-0.3572121193503833 -0.9227021984419802 0.1449832913805699
-0.3369425842418595 -0.9397792781350126 0.05731145882327063
-0.3163257640070186 -0.9475263852762349 -0.04617098905944381
-0.2944565670829877 -0.9406601628261579 -0.16868250701708
-0.2716156423531861 -0.9106355925343571 -0.3113964682501486
-0.2531021204227399 -0.8451534410735954 -0.4708024826601628
0 0 0
0 0 0
-0.2499971796287719 0.8705065432617255 -0.4239336838659796
-0.2621069039167227 0.9272908850315584 -0.2672668805830202
-0.2767475546736873 0.9521907327663568 -0.1293970610794634
-0.291438867077778 0.9565185378754739 -0.0116478949594355
-0.3061497886804599 0.9479101769628111 0.08796933159483157
-0.321250051890566 0.9310649009733175 0.1729640261321828
-0.3370787831562551 0.9084707542022324 0.2471007541573368
-0.3538816723460648 0.8810940832687401 0.3137530532223874
-0.3718154368094512 0.848905428750738 0.3756499088083501
-0.3909474020680566 0.8112346858898368 0.4348084787874476
-0.4112376315055701 0.7670063975723189 0.4925289803826998
-0.4325063087423698 0.7149159224177428 0.5493937720539224
-0.4543934549970901 0.6535987391201966 0.6052563723549683
-0.4763213917158978 0.5818300309076248 0.659235729407821
-0.4974746434621674 0.4987703062566849 0.709751478130762
-0.5168156151983899 0.4042429157756511 0.7546451384142806
-0.533153376135137 0.298993326434499 0.7914230652838832
-0.5452730626328625 0.1848493421495463 0.8176233899992452
-0.5521133304808481 0.06469537079131285 0.8312553033235456
-0.5529541491767391 -0.05779008093447138 0.8312051584619861
-0.5475600505313947 -0.1786057583467652 0.8174827057176396
-0.5362301712088237 -0.2939898103809365 0.7912188034150454
-0.5197386513515601 -0.4009105175515015 0.7544153307083892
-0.4991891420222488 -0.4973600056618055 0.709537331826296
-0.4758325028345515 -0.582412298447356 0.6590746117576324
-0.4508978537723568 -0.6560879495327657 0.6051774350893899
-0.4254695339565013 -0.719108579821459 0.5494165324250817
-0.4004190812821674 -0.7726231989085933 0.4926641369669568
-0.3763829955703715 -0.8179600765126517 0.4350599428548783
-0.3537680641626046 -0.8564223665996512 0.3760171362670796
-0.3327646572939761 -0.8891149350894167 0.314232899386688
-0.3133510761616717 -0.916767015440775 0.2476879941945822
-0.2952770183661967 -0.9394984684969546 0.173649388471842
-0.2780251755928202 -0.9564666187971096 0.08873335823356275
-0.2607820202818674 -0.9653367589014576 -0.01084803260208376
-0.24255003616794 -0.9615702417836922 -0.128655159519477
-0.2228722280685883 -0.9376284311917117 -0.2667974793297569
-0.2049404975074732 -0.8820231128980612 -0.4243048677484182
0 0 0
-0.08188416629344807 0.8285713333477575 -0.5538632763279631
-0.168356124646894 0.9064948552703678 -0.3871992932098839
-0.2004982750315125 0.9515464333114485 -0.233151939648051
-0.2181695386956933 0.9709013181594728 -0.09875567214851867
-0.2315575141249988 0.9726972488895763 0.01552995991300567
-0.2437737959632523 0.9633076117194773 0.1123066409656289
-0.2559757188554375 0.9467363406267095 0.1953630791454423
-0.2686861996550078 0.9250367194731919 0.2685419776147183
-0.282186479382907 0.8988917600301231 0.3352079870817926