# OOMMF: rectangular mesh v1.0
# Segment count: 1
# Begin: Segment
# Begin: Header
# Title: 
# Desc: time = 1.26e-09
# Desc: stepsize = 8.970195022269316e-14
# Desc: step = 8062
# meshunit: m
# valueunit: (none)
# valuemultiplier: 384000.0000000001
# xmin: 0
# ymin: 0
# zmin: 0
# xmax: 9.357999999999999e-08
# ymax: 9.357999999999999e-08
# zmax: 2.3395e-08
# ValueRangeMaxMag: 1
# ValueRangeMinMag: 0
# meshtype: rectangular
# xbase: 1.16975e-09
# ybase: 1.16975e-09
# zbase: 1.16975e-09
# xstepsize: 2.3395e-09
# ystepsize: 2.3395e-09
# zstepsize: 2.3395e-09
# xnodes: 40
# ynodes: 40
# znodes: 10
# End: Header
# Begin: Data Text
0 0 0
0 0 0
0 0 0
0 0 0
0 0 0
0 0 0
0 0 0
0 0 0
0 0 0
0 0 0
0 0 0
0 0 0
0 0 0
0 0 0
0 0 0
0 0 0
-0.8317122766199381 0.02730710291746317 -0.5545349502510495
-0.8415515982290682 0.04687377672876606 -0.538139160973518
-0.8521293558620598 0.02846925041369959 -0.5225562770257306
-0.857724096747265 -0.005717370820600376 -0.5140784818779985
-0.8565284165790331 -0.04444315994299688 -0.5141827273712086
-0.8486133454012952 -0.07901650340525213 -0.5230791356921332
-0.8359830582694329 -0.09808773669153975 -0.5399176994665174
-0.8247894761526873 -0.07888669644680671 -0.5599100009389762
0 0 0
0 0 0
0 0 0
0 0 0
0 0 0
0 0 0
0 0 0
0 0 0
0 0 0
0 0 0
0 0 0
0 0 0
0 0 0
0 0 0
0 0 0
0 0 0
0 0 0
0 0 0
0 0 0
0 0 0
0 0 0
0 0 0
0 0 0
0 0 0
0 0 0
0 0 0
0 0 0
0 0 0
-0.7768524830600942 0.2360873026207796 -0.5837490943073143
-0.8049248670037806 0.2667086182916993 -0.5300589320140523
-0.842196262291279 0.25020710191287 -0.4776001067158185
-0.879167430827802 0.2025972807864315 -0.4312991657649999
-0.9115825716383115 0.1211546867843769 -0.3928597166361825
-0.9249580346328373 0.08113345712066418 -0.3713084920976189
-0.9333602183939949 0.04281274503810298 -0.3563786912566684
-0.9372942926221526 0.0005321052204090216 -0.3485385572386108
-0.9362313081806246 -0.04360459694769622 -0.3486682903669683
-0.9301872767006241 -0.08619255268182099 -0.3568227488914734
-0.9196895042124893 -0.1250871779857217 -0.3721886803020119
-0.9040260917587986 -0.1657468450704893 -0.3940365576548587
-0.8680990513025841 -0.2470246184926392 -0.4305611164354238
-0.8276957775689683 -0.2959926035213982 -0.4767683698140268
-0.7874087373746405 -0.3142987770501751 -0.5302864877128572
-0.7572948408722643 -0.2853209915048477 -0.5874491091106885
0 0 0
0 0 0
0 0 0
0 0 0
0 0 0
0 0 0
0 0 0
0 0 0
0 0 0
0 0 0
0 0 0
0 0 0
0 0 0
0 0 0
0 0 0
0 0 0
0 0 0
0 0 0
0 0 0
0 0 0
0 0 0
0 0 0
-0.750645177130253 0.3290463656111244 -0.5729400556159434
-0.7886046436536447 0.3583798795464068 -0.4996664666997476
-0.8442345852395466 0.3218215478908603 -0.4286010457273065
-0.8785407917708165 0.3013931363990558 -0.3705782704453222
-0.9089474209924138 0.2688703265457729 -0.3186272640161362
-0.9360182482298433 0.2206678713307333 -0.2741815630984286
-0.957493667837354 0.1601323934513599 -0.2399239309008353
-0.9700253245747096 0.1072966329214398 -0.2180328008521892
-0.9772606908150028 0.05727710267424353 -0.2041589471392981
-0.9803287464894925 0.007017508036014745 -0.1972468083070139
-0.9793604489629759 -0.04370032846261471 -0.1973408024188036
-0.9743397617382114 -0.09416756694438709 -0.2044370270564976
-0.9650743144553335 -0.1445967805744928 -0.218456720258406
-0.9502817400786715 -0.1979985742139642 -0.2403355551771082
-0.9260846325656289 -0.259167336111271 -0.2742253548065364
-0.8961976343609972 -0.3084982744954504 -0.3188394812426491
-0.8630423811578464 -0.342477998639114 -0.3713040112543106
-0.8260436494146907 -0.3645443782698693 -0.4298363473852498
-0.7672963057532098 -0.4021107857466732 -0.499563104285804
-0.7268692636319011 -0.3748536302088831 -0.5754527170032643
0 0 0
0 0 0
0 0 0
0 0 0
0 0 0
0 0 0
0 0 0
0 0 0
0 0 0
0 0 0
0 0 0
0 0 0
0 0 0
0 0 0
0 0 0
0 0 0
0 0 0
0 0 0
0 0 0
-0.7553787555420335 0.4094695487655949 -0.51160299482066
-0.806894461982985 0.4099359358027916 -0.4252926707088635
-0.8470055079009038 0.400839776354296 -0.3491548986879167
-0.885393441570645 0.3702399652769147 -0.281070848249044
-0.9152204942817209 0.3347109100334674 -0.2243658921299977
-0.9401076161518293 0.2918427868928158 -0.1761404490512015
-0.9610511818315435 0.2404525634369263 -0.1362468004644651
-0.9774419986058995 0.1827766857561291 -0.1058292138556708
-0.9884540596493437 0.1252628420273541 -0.08525134820025602
-0.9950084053769811 0.06860983372054712 -0.07246353528496513
-0.9977266278290482 0.01216436395218558 -0.06628426940469243
-0.9968107237795711 -0.04434352300718639 -0.06634781778896807
-0.9922403048074047 -0.1009062255190935 -0.07264372765213499
-0.9837628249500313 -0.15779134731215 -0.0855137121153659
-0.970689166033328 -0.2156430303522269 -0.1061160987128254
-0.9520552718652701 -0.2737732174347197 -0.1365246671081376
-0.9287851235698528 -0.3258502120620427 -0.1765781230346913
-0.9015045224770607 -0.3696658024606673 -0.2250261994624554
-0.8691232514346185 -0.4064590730409402 -0.2818080832027636
-0.827847331640211 -0.4386485732203907 -0.3496515761553168
-0.7847779552309527 -0.4498291244159585 -0.4263535150678323
-0.7305302229808976 -0.4504701086652607 -0.5132273127090837
0 0 0
0 0 0
0 0 0
0 0 0
0 0 0
0 0 0
0 0 0
0 0 0
0 0 0
0 0 0
0 0 0
0 0 0
0 0 0
0 0 0
0 0 0
0 0 0
-0.6507739027578923 0.4981455623887985 -0.5730133734579049
-0.7025050095237286 0.5346405681014872 -0.4697298952953539
-0.7831250680014399 0.5004262926941192 -0.3691729316298248
-0.8330578232559888 0.47448168188832 -0.2843972515064522
-0.8700054360285254 0.4452487805358044 -0.2117641723998507
-0.9010311149844563 0.4072515068230371 -0.1492954789008443
-0.9265900267424086 0.363312958556183 -0.09713195399380493
-0.9479736606262414 0.313774719100902 -0.05377140887156664
-0.9657723394382748 0.2587237649589561 -0.01859574740051468
-0.9798652952588153 0.1994885328867605 0.008266099082528433
-0.9899706871932049 0.1386662011048853 0.02701338870545841
-0.9962422615777433 0.07745864442766938 0.03874938257431478
-0.9988841978473972 0.0161363066393379 0.04438444433359918
-0.9979913712856597 -0.04524514854125584 0.04434071912866894
-0.993548828998544 -0.1066251917431228 0.03862373468948116
-0.9854321841041066 -0.167940666885559 0.02682056930497507
-0.9734139976894652 -0.2289123150637168 0.008021291316395351
-0.9573387991403284 -0.2883492774267879 -0.0188975624883939
-0.937513329531239 -0.343706521871256 -0.05417179870018724
-0.9140342802971522 -0.3937174758509855 -0.09761087875434242
-0.8862218707448853 -0.4383933063399696 -0.1497401241142289
-0.8526538881744979 -0.4775123017754745 -0.2120456286604327
-0.8127904605361029 -0.5083305811725071 -0.2845552450866619
-0.7593702989707573 -0.5360305453294498 -0.3688197439330966
-0.6744245585002973 -0.5716442696837077 -0.4673054074472698
-0.6190045545647241 -0.5377928941694583 -0.572374147222745
0 0 0
0 0 0
0 0 0
0 0 0
0 0 0
0 0 0
0 0 0
0 0 0
0 0 0
0 0 0
0 0 0
0 0 0
0 0 0
-0.6301912400262346 0.5438333448133739 -0.5541699144335553
-0.6936887324431544 0.5684038229495947 -0.4423946615158172
-0.7453855945229607 0.5746814628147929 -0.3378483857808137
-0.7975317174455395 0.5526799231757074 -0.2418430527984246
-0.8384124316906453 0.5207464958066536 -0.1608964930993511
-0.8709425088465826 0.4824724420224974 -0.09316377500331137
-0.8982011595082223 0.4380773111763281 -0.03637233138805918
-0.9213671544866597 0.3885443036091347 0.01076525736094914
-0.9411370075987914 0.3343727743066596 0.04955785235923018
-0.9577753474293602 0.2759336217675089 0.0807899760789228
-0.9711825433046956 0.2140713156627115 0.1047756622057731
-0.9811288719114492 0.150113711478316 0.1218688242659757
-0.9874943292674835 0.08506976612665905 0.1327331328482742
-0.9902422573073545 0.01951175366833911 0.1379839241057478
-0.9893597269832101 -0.04621286450537874 0.1379554340282202
-0.984836637152153 -0.1118075608299637 0.132649415619111
-0.9766693638422125 -0.1769116275470378 0.12173425882103
-0.9648886060025819 -0.2409355033086025 0.1045947477258014
-0.9496217760300161 -0.3028660841554315 0.0805643690346563
-0.9311078144482791 -0.3613978693756493 0.04929318293729328
-0.9094254600515781 -0.4157343080807617 0.01050322305700399
-0.8842469156460703 -0.4655874246077849 -0.03654780728717801
-0.8547725767528443 -0.5105728595834961 -0.09316220847550548
-0.8196864706130113 -0.5498222097356069 -0.1606537505800552
-0.7757080673967166 -0.5831748772303028 -0.2412137159099191
-0.7197745595463294 -0.6071076728765892 -0.3366672793192996
-0.6640280028824275 -0.6034668618124048 -0.4414686377108367
-0.5969110194514947 -0.5809586023985347 -0.5533392604510529
0 0 0
0 0 0
0 0 0
0 0 0
0 0 0
0 0 0
0 0 0
0 0 0
0 0 0
0 0 0
0 0 0
-0.5882534880077874 0.5887243518683665 -0.5544019041849
-0.6571732204239872 0.6173141054693755 -0.4324889056913594
-0.7107754978130243 0.6264456930878687 -0.3199437221142283
-0.7549833918259579 0.6181006377964721 -0.2189787195655457
-0.7947030110256882 0.5928810703391157 -0.1301505309257274
-0.8286889511514801 0.5569771010633668 -0.05523704491106646
-0.8577662685615044 0.5139910152510809 0.007089764399143963
-0.8831261216017375 0.4654260551627145 0.05887988213597547
-0.9054276344059731 0.4121224355490231 0.1017639276519162
-0.9249456839666419 0.3545478831295923 0.1370083219363162
-0.9416669025503794 0.2930871768192405 0.165418715462612
-0.9553683470837924 0.2283431173908513 0.1874319666722026
-0.9657410112873549 0.1611750927310472 0.2033885163936615
-0.9725174053495113 0.09243079805817941 0.2136970843567633
-0.9755175885647694 0.02280818031849384 0.218735505374266
-0.9746490367545588 -0.04711358409258202 0.218722576217822
-0.9699022829668142 -0.1167886415423991 0.2136585469913196
-0.9613553413765559 -0.1856192891297448 0.2033258151581674
-0.9491849399955126 -0.252879820068479 0.1873492628430874
-0.9336668801779333 -0.3177003588619026 0.165325856531344
-0.9151204327761716 -0.379217079206456 0.136926989135364
-0.893764256076637 -0.4368465615353548 0.1017375851615923
-0.8695820901938655 -0.4902542740186626 0.05897232588682166
-0.8422365007526595 -0.5390578600015179 0.007368878510236645
-0.8109627781247369 -0.582534010092367 -0.0547128831438604
-0.7744092651682137 -0.6193264807339391 -0.1293251726592319
-0.7315762795499807 -0.6460183339067138 -0.2178450354178428
-0.6836499799609812 -0.6565653632762972 -0.318660679477737
-0.6257742558754638 -0.6501214687497759 -0.4309856802193582
-0.5527943999610014 -0.6238120164854004 -0.5525187050771894
0 0 0
0 0 0
0 0 0
0 0 0
0 0 0
0 0 0
0 0 0
0 0 0
0 0 0
-0.5458654802849597 0.6116181329386784 -0.5726728009028148
-0.6113052745372697 0.6563197802947158 -0.4422105915927487
-0.6643087193940751 0.675568633985657 -0.3198451908529448
-0.7078459078525063 0.6742052334303315 -0.210716572560424
-0.7449406138930486 0.6570125292196375 -0.1157498087301321
-0.7781003304958722 0.6272055253564801 -0.03425061524287466
-0.8079769671404419 0.5882095124890374 0.03439171394306827
-0.8350563121513072 0.5424668882569761 0.09170949068145183
-0.8597386233432707 0.4913099179680384 0.1395136697175469
-0.8821796274782653 0.4354313795767694 0.1793282424555029
-0.9023028677618788 0.375219014325043 0.2122739412118967
-0.919849764419216 0.3110113054397828 0.2390572709342979
-0.9344379252448936 0.2432934238518032 0.2600655182343185
-0.9456401967932885 0.1727512906971312 0.2755387627380677
-0.9530710799796893 0.1001771597295673 0.2856922350622516
-0.9564459638502509 0.02637463554395095 0.2907154912186268
-0.9556096081454027 -0.04787019471712678 0.2907210368685649
-0.9505481993973245 -0.1217723830082996 0.2857089556856477
-0.9413944720254162 -0.1945218568506901 0.27556795032686
-0.9284234989334679 -0.2652756989303071 0.260112687474435
-0.9120261434262598 -0.3332003258234398 0.239135644725282
-0.8926443807897069 -0.3975786907730612 0.21240808385685
-0.8706749429369033 -0.4579134126983235 0.1795562591857899
-0.8463797302910882 -0.5138810147844617 0.1398844337175364
-0.8198153729521683 -0.5651444079929183 0.09227433221449081
-0.7907663984928855 -0.6111053116845838 0.03519660559596393
-0.7587140866610323 -0.6505787139884783 -0.03317034228361899
-0.7229916122184221 -0.6813217323854306 -0.1143845515842128
-0.6827295605412288 -0.7001152503096639 -0.2090908497448338
-0.6352150993463407 -0.7038484787382739 -0.3179608412056986
-0.5775296425824906 -0.6875495333419959 -0.4401535540464753
-0.5077594719384648 -0.6453891655129055 -0.5706602699464246
0 0 0
0 0 0
0 0 0
0 0 0
0 0 0
0 0 0
0 0 0
0 0 0
-0.5800351538990224 0.6674430527381953 -0.466989284237717
-0.6154887057799647 0.7124647525173594 -0.3369979665779615
-0.6544571169945188 0.7238006973862423 -0.2186285262229316
-0.689874793208868 0.714640899438398 -0.1155904604407227
-0.7217697306829123 0.6915873005616211 -0.02748566120372287
-0.7512637141853535 0.6583027702071174 0.04733174923940378
-0.7790013868935382 0.6172033310847943 0.1105300290227818
-0.8052550438496027 0.5698439719324763 0.1638357775548209
-0.8300547593752037 0.5170958337789568 0.2088563983387084
-0.8532296763154109 0.4594044952013248 0.2468737111227405
-0.8744427210467733 0.3970294078333538 0.2787787239439383
-0.8932301675378426 0.33024058451432 0.3050918290285027
-0.9090491250694591 0.2594625352075611 0.3260504271337721
-0.9213405341314042 0.1853321664317015 0.3417361676091515
-0.9296021001215025 0.1086676202989065 0.3521807543694915
-0.9334530559194786 0.03040371490921633 0.3574087387212367
-0.9326790857531423 -0.04846081748323607 0.3574370884051322
-0.9272571590880487 -0.1268973309842132 0.3522658489110798
-0.9173618508155335 -0.2038767359504657 0.341879381078301
-0.9033511107824926 -0.2784117200982639 0.3262570838464079
-0.8857260866785601 -0.349622494563533 0.3053742141574095
-0.8650645682671485 -0.416814354389989 0.279157816840632
-0.8419407322743435 -0.4795198333144598 0.2473793297658766
-0.8168513346194555 -0.5374507436885645 0.2095246888531822
-0.7901530575255297 -0.5903646604391228 0.1647049282433757
-0.7620024857226405 -0.6378790678423837 0.1116355971948383
-0.7322965095027024 -0.6792421718715591 0.04870209565680921
-0.700609337812397 -0.7130771486983941 -0.02583671368890014
-0.6660561741686839 -0.7371888137853126 -0.1136742085152943
-0.6272276550143554 -0.7481338394494725 -0.2165207312378721
-0.5839801765839628 -0.7394011305587438 -0.3350419697372473
-0.5441667376415222 -0.6973215962214935 -0.466503111551992
0 0 0
0 0 0
0 0 0
0 0 0
0 0 0
0 0 0
0 0 0
-0.4596734601160523 0.7248547593875525 -0.5131139131402973
-0.544985784085495 0.7530932664386367 -0.3685661774898804
-0.5921702171858212 0.7688591853375805 -0.2412260081337176
-0.6284918255818521 0.7669293520082584 -0.1296818962113943
-0.6599854345803242 0.7505126795728131 -0.03391082337920855
-0.6889209130066581 0.7232766079095797 0.04752813980037793
-0.7165054569071134 0.6877436799423416 0.1167414276154526
-0.7433071125172995 0.6454503720513697 0.175750828447386
-0.7694619352053405 0.5972557535197969 0.2263048721471804
-0.7948163647824117 0.543571496371013 0.2698091447802484
-0.8190105371372106 0.48456280310053 0.3072794003990087
-0.841529706841966 0.420327105080128 0.3393418294838302
-0.8617461575991812 0.3510467756419286 0.3662782018827378
-0.878966650816413 0.2771050554639143 0.38811134354579
-0.8924942152744845 0.1991451107465571 0.404716321103218
-0.901702455159044 0.1180647967668747 0.415924736129685
-0.9061094602162197 0.03496642471963685 0.4215957723329256
-0.9054374975168386 -0.04891297100491762 0.4216520595916927
-0.8996493691383547 -0.1322774178568114 0.4160933757392616
-0.8889569955987296 -0.2138516603433361 0.4049974411579387
-0.8737995769237671 -0.2924654761637138 0.3885077150072786
-0.8547923646845765 -0.3671372178709325 0.3667973235056938
-0.832653230395026 -0.4371389823447361 0.3399972176758734
-0.8081219957894221 -0.5020151469720986 0.3080902986656713
-0.7818863197313251 -0.5615350201955235 0.270799195181626
-0.7545169103557583 -0.6155875798011657 0.2274998100696857
-0.7264027118607971 -0.6640389681171129 0.177176039642044
-0.6976721905265699 -0.7065624433138985 0.1184188678553841
-0.6680812278485544 -0.7424419116237394 0.0494720209901997
-0.6368484325870929 -0.7703369906156957 -0.03170165296188211
-0.6024514252048313 -0.7879478920970969 -0.1272415011244703
-0.5622884161471423 -0.791758459931129 -0.238642574144313
-0.5102432120461126 -0.7783402773854248 -0.3658391410995346
-0.4198409900380768 -0.7516326127440008 -0.508706161298911
0 0 0
0 0 0
0 0 0
0 0 0
0 0 0
-0.3845958431495828 0.722262917356809 -0.5748237257136242
-0.4593452011659731 0.7796251403811384 -0.4256602244178813
-0.5177965765200349 0.8070165924164999 -0.2839206313542436
-0.5594397218268009 0.8132367771764697 -0.1602284053780101
-0.5924426674812501 0.8037616842463511 -0.05457875672062733
-0.6213914146070292 0.7827190957043872 0.03497895184794566
-0.6485842333046379 0.7530057749140074 0.1109990777204463
-0.6751626248560361 0.7163570003228756 0.1760343093999531
-0.7016057628642227 0.6736487299602932 0.2322643798316807
-0.7279656272031232 0.6252094481604475 0.2813879733422723
-0.7539983954780018 0.5710569983514547 0.3246233575244162
-0.7792423181657978 0.5110811304837293 0.3627361129568795
-0.8030676544802321 0.4451969424888143 0.3960833557803574
-0.8247192822581357 0.3734784019265245 0.4246786888531546
-0.8433673648998895 0.2962658799297407 0.448283410591193
-0.8581753943782523 0.2142311792121452 0.4665190181944397
-0.8683843486513653 0.1283867896594181 0.4789837734812024
-0.8734016820034617 0.04004016946260158 0.4853517144328733
-0.8728781447240811 -0.04929520482708127 0.4854417856387123
-0.8667572663412794 -0.1380168892218821 0.4792527303355784
-0.8552870228094287 -0.2245635357340664 0.4669639461804279
-0.8389908758382559 -0.3075415926435159 0.4489014135135303
-0.8186031643095183 -0.3858303260631912 0.425468939962031
-0.7949824574675936 -0.458645332906254 0.3970482979715393
-0.7690200268495176 -0.525545501723177 0.3638820192354941
-0.7415573296776888 -0.5863811173133305 0.3259599853657885
-0.7133150934510121 -0.6411968115593062 0.2829279524917125
-0.6848263016854133 -0.6901062246972877 0.2340220826202847
-0.6563577697050053 -0.7331451207592803 0.1780244647646241
-0.6278012400466698 -0.7700931936260189 0.1132346065774154
-0.5985110850809806 -0.8002378660448625 0.03746783664893717
-0.5670494748159973 -0.8220509426724328 -0.05183763847115142
-0.530713025097422 -0.8328385081752646 -0.1572377317705325
-0.4845271842300345 -0.828548528471389 -0.2806078112063337
-0.4203041641875998 -0.803470358914583 -0.421639409818667
-0.3398945199097358 -0.7482585211927446 -0.5697200196568279
0 0 0
0 0 0
0 0 0
0 0 0
-0.4119250369300891 0.7631157732580953 -0.4979679513330585
-0.4484435731252658 0.8231502629964449 -0.3483130865349841
-0.4874326149550421 0.847313648119441 -0.2108768066635418
-0.5207851137395458 0.8486939741924848 -0.09220305567958983
-0.5497002482937328 0.8353230482741449 0.00806486502047014
-0.5763138607615848 0.8119596671307938 0.09264897650231518
-0.6021153353522292 0.7812398807862334 0.1646856751596311
-0.6279302170453499 0.744431963825279 0.2269905146842433
-0.6540972045837589 0.701957238713835 0.2818029133507312
-0.6806008084787752 0.6537493035332509 0.3307482239224061
-0.7071528922238396 0.5994996302691596 0.3748799545542526
-0.7332421658165338 0.5388380943951254 0.4147402009659878
-0.7581694081071026 0.4714833874490008 0.4504248705057707
-0.781084201008423 0.3973784763740515 0.4816615175096204
-0.801037235669397 0.3168071980044295 0.5079099786022246
-0.817056289267457 0.2304746082785307 0.5284888599652322
-0.8282449905599091 0.1395305931320465 0.5427167301573027
-0.8338915236305132 0.04552439579748999 0.5500476853914158
-0.8335667585327732 -0.04970810842386122 0.5501777558444965
-0.827189307015489 -0.1442081091221677 0.543103923409363
-0.8150417823607189 -0.2360803426726483 0.5291247157427317
-0.7977336659685802 -0.3236685105106004 0.5087825601218838
-0.7761203007022119 -0.4056875414348234 0.4827575971048781
-0.751197086825066 -0.4812909515557644 0.4517321736339803
-0.7239913761323508 -0.5500666294204752 0.4162489525319936
-0.6954678884264671 -0.6119712690366499 0.3765840969044001
-0.6664528595088486 -0.6672235488929545 0.332645940686444
-0.637570504298416 -0.7161748508088834 0.2838968740890542
-0.6091790319480919 -0.7591627723487929 0.2292875751419604
-0.5812894093560853 -0.7963340938136645 0.1671963923068391
-0.5534499780696949 -0.827402298470407 0.09538636307429371
-0.5245827202009559 -0.8512878763226933 0.01104179752412524
-0.4927986564426082 -0.8655820340296727 -0.08897879844892252
-0.4554849948890081 -0.8657430424568336 -0.2074184270226368
-0.4111832907463521 -0.8438390904841153 -0.344766429314023
-0.3689538993711506 -0.7864813841563566 -0.4952979431759471
0 0 0
0 0 0
0 0 0
-0.2955807595327284 0.7545716726177898 -0.5858784903688184
-0.3745629313810321 0.8225623673432906 -0.4278945691006708
-0.4165316566750198 0.8649546133793654 -0.2799194451647027
-0.4487230132276557 0.8813312576940003 -0.147996187827268
-0.4763492391227721 0.8785595430156842 -0.03499331026392719
-0.5015933685146226 0.8629996538169319 0.06029668460213249
-0.5259061790504262 0.8387859660482768 0.1409283292920184
-0.5502309798334118 0.8081178065126307 0.2102176958031299
-0.5750968653830741 0.7718808503970714 0.271041598683404
-0.6007052283318191 0.7301558486970208 0.3256158246589837
-0.6269884663620204 0.6825703013608835 0.375477358503963
-0.6536417462349855 0.6285388055960783 0.4215346218743287
-0.6801395344697143 0.5674440730681336 0.4641308410256381
-0.7057495710571541 0.4987953979394109 0.5031110155294823
-0.7295582712054084 0.4223804789119356 0.5379028350454188
-0.7505202441293427 0.3384058080284322 0.567627406178256
-0.7675408219783796 0.2476036632059296 0.5912474207671079
-0.7795900951474682 0.1512755644899015 0.6077458244498454
-0.7858344093244272 0.05124694829691984 0.6163100124223042
-0.7857589122232649 -0.05027438829107914 0.6164863483838622
-0.779251444666802 -0.1509174733242682 0.6082689390640627
-0.7666245368153729 -0.2484021255836425 0.5921006701213423
-0.7485697809688727 -0.3407727020719116 0.5687857668251038
-0.7260574312818975 -0.4265639491083315 0.5393364476849649
-0.7002081798163076 -0.5048730708126103 0.5047887551110642
-0.6721654146332788 -0.575339442856281 0.4660237986033499
-0.6429887789429087 -0.6380537647332826 0.423618724165011
-0.613575771939662 -0.6934268365939551 0.3777353496562738
-0.5846069470144812 -0.7420415064025714 0.3280382908719794
-0.556502077751398 -0.7844956249206727 0.2736275789073525
-0.5293725737478403 -0.8212225242822749 0.2129747491488949
-0.5029549613963092 -0.852254155132065 0.1438720329562568
-0.4765159995626123 -0.8768733307169946 0.06344812084000692
-0.4487406243129549 -0.893102681701148 -0.03161411123907563
-0.417662832759687 -0.897056889853074 -0.1443838443119001
-0.3806061483625655 -0.8825590890332853 -0.2760949369208888
-0.3323670838865023 -0.8425877808991318 -0.4237663896868873
-0.2471255638690014 -0.7764702588267267 -0.5796748164617673
0 0 0
0 0 0
-0.3244216535481256 0.7851004101207256 -0.5276058535852002
-0.3525755032621877 0.860083281739716 -0.368710269685094
-0.3799500010740781 0.897839850268762 -0.2225344916033792
-0.4043908265472339 0.9096123976545383 -0.09525410982002971
-0.4269779520238944 0.9041728288393365 0.01270134143120243
-0.4488146294670428 0.8875814900808855 0.1037522377693877
-0.4707281264001931 0.8634392660095422 0.1813495655596286
-0.4932677852453027 0.8335112898094424 0.2488891757377024
-0.516743395526434 0.7983477511094063 0.3092201990141724
-0.5412564733420201 0.7577512255629739 0.3644921264213667
-0.5667117793413247 0.7110957501225903 0.4161497246345112
-0.5928127845720735 0.6575500239973915 0.4649741588399656
-0.6190498950501584 0.5962564542788533 0.5111315566164908
-0.6446932282002235 0.5265016606715002 0.5542261657689271
-0.668803047316893 0.4478934673322575 0.5933750296572353
-0.6902723327261975 0.3605365866841871 0.6273256541341575
-0.7079114530487446 0.2651777594967345 0.6546312935620374
-0.720575372111128 0.1632774118836791 0.673878045254092
-0.7273171796972469 0.05696704454574655 0.6839330931845343
-0.7275367332949449 -0.05112554404541085 0.684161150937833
-0.7210850918790664 -0.1581620145633013 0.6745524941908049
-0.7082942712864349 -0.2614286645167969 0.6557242397775013
-0.6899232164006077 -0.3586402480633366 0.6287949808486928
-0.66703787007445 -0.4481444915464261 0.5951697191416375
-0.6408595092572252 -0.5289970042005313 0.5562924221499433
-0.6126181755895408 -0.6009164375308309 0.5134183538232704
-0.5834359264013022 -0.6641568738697468 0.4674378746697992
-0.5542492096106101 -0.719340168109577 0.4187571327035498
-0.5257647747390511 -0.7672804497983152 0.3672221575570964
-0.4984363525748591 -0.8088120606842536 0.3120645012230027
-0.4724457937241268 -0.844609692499353 0.251852018710447
-0.4476741262078601 -0.8749670603858597 0.1844465233170738
-0.4236518368374409 -0.8994824743353991 0.1070065395559052
-0.3994931112579039 -0.9165941937448427 0.01613499459934744
-0.3738559461929366 -0.9229485606766814 -0.09163888825725379
-0.3450546298741852 -0.9127250492967209 -0.2187927941882157
-0.3117576089207311 -0.8772400735984944 -0.365043896747961
-0.2772871328975298 -0.8048303149041313 -0.5247475680179797
0 0 0
0 0 0
-0.3060103338336845 0.8259714369839086 -0.4734224972196959
-0.3186129124797926 0.8937894686483251 -0.3156361793814013
-0.3362750729478224 0.9256477995415621 -0.1734797582365158
-0.3546436542000589 0.9335997183001462 -0.05118050923462859
-0.3730330262791326 0.9263499991799996 0.05217317629056107
-0.391713773364591 0.9094215370788502 0.1396881800783969
-0.4110738428035353 0.8858785773150974 0.2150289329762685
-0.4314145626451923 0.8570811591287585 0.2815907700976016
-0.4529160190177641 0.8232835983062901 0.3421566841038573
-0.475629765684016 0.7840506898609726 0.3987992499038836
-0.4994637351315668 0.7385360481019201 0.4528802081593121
-0.5241558280497549 0.6856825622769531 0.505074342756378
-0.5492429963853501 0.6243965480034729 0.5553927275027899
-0.5740360653800635 0.5537309745768398 0.6032119059146278
-0.5976149191104247 0.4730921704614817 0.6473331497032142
-0.6188598835662985 0.3824590473513283 0.6861031421086931
-0.6365332513389873 0.282576577209707 0.7176182118315166
-0.6494132988463119 0.1750646821225091 0.7400099488215648
-0.6564655670691242 0.0623826709129127 0.7517721474106259
-0.6570147628671449 -0.05238227847303008 0.7520556483908639
-0.6508701239997763 -0.1658784178122327 0.7408457546538454
-0.6383641386507511 -0.2749204650956095 0.7189645084121312
-0.6202931143098327 -0.3768745247846964 0.687896827226378
-0.5977803481038548 -0.469904935302182 0.6494982734384179
-0.5721049570362108 -0.5530473078561082 0.605668715889888
-0.5445397740692304 -0.6261298441535452 0.5580661723459754
-0.5162283050546574 -0.6895980213533212 0.5079004882907469
-0.4881098224985851 -0.744302157209089 0.4558103771902253
-0.4608864158541686 -0.7912895061822804 0.401801728576297
-0.4350160546110245 -0.831616722940258 0.3452168280324171
-0.410714527971071 -0.8661720310915698 0.2847096574902305
-0.3879501515766127 -0.8954744472669554 0.2182205173296576
-0.3664220578989082 -0.9193984533882897 0.1429732820926671
-0.3455291336565652 -0.9367613835185816 0.05556732981614187
-0.3243890919793411 -0.9447206977296169 -0.04769193103748008
-0.3021185685421482 -0.9379903556383516 -0.1699954801501535
-0.279020840324371 -0.9080223293073727 -0.3124785114914217
-0.2604218379815214 -0.8425058627582565 -0.4715552327355633
0 0 0
0 0 0
-0.256970407565797 0.8670696800278546 -0.4267978205331672
-0.2692724030598022 0.9242964807476992 -0.2704965593641012
-0.2842747556698021 0.9494958465353153 -0.1328363681416293
-0.2994598103871812 0.9539868778334356 -0.01525971443003693
-0.3147798305064611 0.9454265269700776 0.08415664208855043
-0.3305917539498087 0.9285408234329061 0.1688817084202107
-0.3472218380841798 0.9058455633494918 0.2426536843270356
-0.3649019547463516 0.8783347183773624 0.3088279228231322
-0.3837735208664633 0.8460073460926922 0.3701208654466229
-0.4038866039329412 0.8082244682688785 0.4285426700516569
-0.4251812913300781 0.7639458559135965 0.4853942714282165
-0.4474546420867419 0.7119065312591871 0.541270204265427
-0.4703201777118532 0.6507844034521812 0.59605250663048
-0.4931710169963106 0.5793953252401547 0.6489093966685021
-0.5151610460777694 0.4969310120247732 0.6983327758970592
-0.5352228687296483 0.4032264237797957 0.7422566483060705
-0.5521390230186152 0.2990088244885543 0.7782905769299933
-0.5646738221781026 0.1860516534291126 0.8040698084140864
-0.571752027068322 0.06715058565033998 0.8176737848250245
-0.5726468537306725 -0.05412637286912057 0.8180133963893221
-0.5671223423741708 -0.1738887231900678 0.8050682956913415
-0.555482821982676 -0.2884621012781511 0.7798900246883247
-0.5385129819776404 -0.3948626500212248 0.7443703754581884
-0.517332671843754 -0.4910865425664008 0.7008572710282608
-0.4932143589929589 -0.5761753755912167 0.6517373187454316
-0.4674134386698731 -0.6500945193947602 0.5990841286528128
-0.4410433531050781 -0.7135022821015248 0.5444219449266765
-0.4150056280423542 -0.7674875143073568 0.4886033606878744
-0.3899656642667239 -0.8133281350569117 0.4317686017044984
-0.3663570307807877 -0.8522890205521941 0.373344280046803
-0.3443942781382623 -0.8854483047928049 0.3120478821033283
-0.3240777005285018 -0.9135179989514572 0.2458831218524024
-0.3051773385802524 -0.9366080144653951 0.1721401151860411
-0.2871953374978328 -0.9538710899690354 0.08745731439273399
-0.2693370587852042 -0.9629720498794578 -0.01193230555634525
-0.2506236527447074 -0.9593746340624404 -0.1295688859350821
-0.2306179022075671 -0.9355419200538282 -0.2675382197058525
-0.2125421049241351 -0.8799734646182422 -0.4248206153215547
0 0 0
-0.08902205260286647 0.8257234505989576 -0.5570061555147507
-0.1756540132140084 0.9038556356502281 -0.3901162103080753
-0.2080595210143081 0.9491842748805392 -0.2361365029697885
-0.2261437790463064 0.9687552829520426 -0.1018439637443603
-0.2400865986015595 0.9706733346620996 0.01231675882253788
-0.2529891846580313 0.9613181008978067 0.1089219047404988
-0.265998284985995 0.944712902588666 0.1917353490283058
-0.2796258025639651 0.9229336002430808 0.2645807628736507
-0.2941411404155221 0.8966865386692294 0.3308084655574158
-0.3096995466141839 0.8657680616751505 0.3931053983478487