# OOMMF: rectangular mesh v1.0
# Segment count: 1
# Begin: Segment
# Begin: Header
# Title: 
# Desc: time = 8.599999999999999e-10
# Desc: stepsize = 9.009567193954898e-14
# Desc: step = 5502
# meshunit: m
# valueunit: (none)
# valuemultiplier: 384000.0000000001
# xmin: 0
# ymin: 0
# zmin: 0
# xmax: 9.357999999999999e-08
# ymax: 9.357999999999999e-08
# zmax: 2.3395e-08
# ValueRangeMaxMag: 1
# ValueRangeMinMag: 0
# meshtype: rectangular
# xbase: 1.16975e-09
# ybase: 1.16975e-09
# zbase: 1.16975e-09
# xstepsize: 2.3395e-09
# ystepsize: 2.3395e-09
# zstepsize: 2.3395e-09
# xnodes: 40
# ynodes: 40
# znodes: 10
# End: Header
# Begin: Data Text
0 0 0
0 0 0
0 0 0
0 0 0
0 0 0
0 0 0
0 0 0
0 0 0
0 0 0
0 0 0
0 0 0
0 0 0
0 0 0
0 0 0
0 0 0
0 0 0
-0.8465968535284163 0.03861477560176821 -0.5308320513128513
-0.8565465079255077 0.05482510988541549 -0.5131493808694204
-0.867137052008408 0.03357365977340013 -0.4969367589579046
-0.8727022812911287 -0.00323330489781353 -0.4882420239683358
-0.8714571723114904 -0.04450374531713432 -0.4884483734025613
-0.863475478906915 -0.08166797096264862 -0.4977353110291824
-0.8507488673512541 -0.1035337016011009 -0.515273846933193
-0.8393976418203256 -0.08763865997706634 -0.5364056899249854
0 0 0
0 0 0
0 0 0
0 0 0
0 0 0
0 0 0
0 0 0
0 0 0
0 0 0
0 0 0
0 0 0
0 0 0
0 0 0
0 0 0
0 0 0
0 0 0
0 0 0
0 0 0
0 0 0
0 0 0
0 0 0
0 0 0
0 0 0
0 0 0
0 0 0
0 0 0
0 0 0
0 0 0
-0.7871010435323774 0.2547991279536135 -0.5617377961863702
-0.8151911490668031 0.2823237285647452 -0.5057239392914326
-0.8523407025809676 0.263292725840426 -0.4518763849143923
-0.8891245673412597 0.2136410286444719 -0.4047406757788857
-0.9214390536698355 0.1306926062180168 -0.3658818293547522
-0.9348779569702451 0.08831080265221136 -0.3438086789277752
-0.9432994582486388 0.0475225511233769 -0.3285235748048377
-0.9472223454284208 0.002803605644966467 -0.3205650762582667
-0.9461323582206519 -0.04374405898495767 -0.3208114992193205
-0.9400442876619126 -0.08874387497292906 -0.3293042087325879
-0.9294690682806763 -0.1300574043017245 -0.3452134451259808
-0.9136781063096032 -0.1730184997863951 -0.3677729146935133
-0.8777465126448351 -0.2557621969217435 -0.4051502908373546
-0.8373926225066561 -0.3066231307892511 -0.4524995595980417
-0.7970885243711273 -0.3272505387501456 -0.5075007085744784
-0.7668643864029305 -0.3011441603870844 -0.5667726241903489
0 0 0
0 0 0
0 0 0
0 0 0
0 0 0
0 0 0
0 0 0
0 0 0
0 0 0
0 0 0
0 0 0
0 0 0
0 0 0
0 0 0
0 0 0
0 0 0
0 0 0
0 0 0
0 0 0
0 0 0
0 0 0
0 0 0
-0.7564204012838746 0.3507155754403263 -0.5521111859626665
-0.7943099190843426 0.3772500321496919 -0.4761871120549999
-0.8498112456717224 0.3388252046471482 -0.4037552816071797
-0.8840029491174891 0.3161233978490143 -0.344390451789789
-0.914264970353607 0.2814141168750779 -0.2914200727605037
-0.9412163075330845 0.2312269482228686 -0.2462640064023247
-0.9626805025594741 0.1688397372935214 -0.2115168860930318
-0.9753036101212403 0.113895069536979 -0.1892373673977779
-0.982616642095902 0.06162485518145433 -0.1751197073433998
-0.9857205286575653 0.009066306974490436 -0.1681452986583129
-0.9847435598855409 -0.04395372373849403 -0.1683692116554324
-0.9796680691740091 -0.0966980493835481 -0.1757838487640007
-0.9703015330175808 -0.1493357898600253 -0.1902991247762694
-0.955386769901051 -0.2047866771316955 -0.2128345290769201
-0.9311535738918308 -0.267727256161618 -0.2475381549107962
-0.9013118763662824 -0.3189076698859492 -0.2931463791504257
-0.8682017730822661 -0.3548899100668571 -0.3468123886909845
-0.831197175895663 -0.3790177354915512 -0.4067638270125919
-0.7724028162531824 -0.4182581499093043 -0.4779686281322212
-0.7319080312802224 -0.3935140600179777 -0.5562888802732584
0 0 0
0 0 0
0 0 0
0 0 0
0 0 0
0 0 0
0 0 0
0 0 0
0 0 0
0 0 0
0 0 0
0 0 0
0 0 0
0 0 0
0 0 0
0 0 0
0 0 0
0 0 0
0 0 0
-0.7570094745591956 0.4315183658854459 -0.4906409637720484
-0.8083616412452992 0.4298650868767807 -0.4022032621046515
-0.8482541787139486 0.4186457593080232 -0.3243463835280618
-0.8864768394024394 0.3861711705610136 -0.2550110590358731
-0.9162261012684305 0.3487345231565594 -0.1972662254751632
-0.9410865143549675 0.3039629792733525 -0.1481981097399165
-0.9620618077136731 0.2506998149098805 -0.1076414462131124
-0.9785629688305575 0.1911298448794692 -0.07670657357668083
-0.9897379746279233 0.1315749398315772 -0.05573846775551142
-0.9964353397975929 0.0727466139103109 -0.04271467858990573
-0.9992355949536078 0.01404825739225986 -0.03648112172000149
-0.9983252372278053 -0.044731895902016 -0.036684849775576
-0.9936826436817755 -0.1035308828285228 -0.04331466202504483
-0.985068487899584 -0.162558093753015 -0.05670044358391158
-0.9718320310844918 -0.2223998696205865 -0.07797949314362607
-0.95307596028283 -0.2823496910302239 -0.1092010343636797
-0.9297419278843203 -0.3361878338993496 -0.1501921698092473
-0.902429804984185 -0.3817539542096387 -0.199710704574167
-0.8700374121389787 -0.4202630085414284 -0.2577089543074036
-0.8287976310040632 -0.454098922082242 -0.3269383058098239
-0.7857938612712686 -0.4671197220540321 -0.4053728812544731
-0.7315361451653892 -0.4696055432050045 -0.4942929314765632
0 0 0
0 0 0
0 0 0
0 0 0
0 0 0
0 0 0
0 0 0
0 0 0
0 0 0
0 0 0
0 0 0
0 0 0
0 0 0
0 0 0
0 0 0
0 0 0
-0.6490390395728374 0.5217247434459394 -0.5536710369765039
-0.7005044682327419 0.5557221324151597 -0.4477347446088035
-0.7806676317299855 0.5203054976845639 -0.3461794879080978
-0.8303026453395718 0.4928765648384603 -0.260134982221053
-0.8670555926313073 0.4620747048417427 -0.186283564578811
-0.8980024468748653 0.4225241600914232 -0.1227393154037906
-0.9235999336017938 0.3769839991499981 -0.06961484781018802
-0.9451075048176553 0.325770446014388 -0.02540513414511713
-0.9630952227472629 0.2689558517700955 0.01050436671206859
-0.9774263212189472 0.2078350967632906 0.03797840362348534
-0.9877825141555564 0.1449636012305285 0.05719492151234812
-0.9942621753994514 0.08155529650524254 0.06922037403750377
-0.9970272726138953 0.01793257396317313 0.07493357361791712
-0.9961516156651118 -0.04578016199163992 0.0747404534091539
-0.9916190553105817 -0.1094493357358523 0.06864759319837339
-0.9833238749304289 -0.1729422770161844 0.05625945087061365
-0.9710779456892823 -0.2359255801350106 0.03669801130635376
-0.9547766838448597 -0.2971912492718384 0.00887948998852657
-0.9347575946232239 -0.3542280259187759 -0.02739972532509522
-0.9111281676232212 -0.4057967673265323 -0.07193362072693685
-0.88322366062431 -0.4519186589920281 -0.1252417301391196
-0.8496470402476832 -0.4923917768485322 -0.1888127249162406
-0.8098531009146062 -0.5245299154134769 -0.2626905456527253
-0.7565507699707771 -0.5534268757230196 -0.3483527317017643
-0.6717748352312186 -0.5899306001756905 -0.447996046552219
-0.6164118707055894 -0.5581123289982228 -0.5554701016917246
0 0 0
0 0 0
0 0 0
0 0 0
0 0 0
0 0 0
0 0 0
0 0 0
0 0 0
0 0 0
0 0 0
0 0 0
0 0 0
-0.6249876947714115 0.5676022309870505 -0.5359273166790802
-0.6881902064182523 0.5902582830408669 -0.4218878987262498
-0.7394285597480981 0.5947005488100103 -0.3155577003876235
-0.7911303496858361 0.5713441047413164 -0.2183544910994725
-0.8317192561460447 0.5382059060377556 -0.1362992357350101
-0.8641183082874596 0.4987458125954966 -0.06746972432784715
-0.8913971324732235 0.4531214236775254 -0.009598313548024708
-0.914716592755743 0.4022490856005106 0.03859051788816428
-0.9347397007356698 0.3465807742755093 0.07838021925956819
-0.9516970688696647 0.2864567145872907 0.110522575851016
-0.965453799062733 0.2226989054548499 0.1352928652388856
-0.9757353781737663 0.1566277413285973 0.1529974588886969
-0.9823701005951195 0.08928082294532082 0.1642495665471907
-0.9852786947349423 0.02129332536378745 0.1696245500992103
-0.9844244191538476 -0.04690323219303411 0.169436270566415
-0.979795437866931 -0.1149212994091523 0.1636887133471951
-0.9714084865303894 -0.1823150286635561 0.1520749243634344
-0.9593334143230996 -0.2484294716851001 0.1340231239803234
-0.9437456159249235 -0.3122185565775741 0.1089210050959051
-0.9249252688255425 -0.3723782205082678 0.07647030782658792
-0.9029832990870443 -0.4281281676373179 0.03643396280106232
-0.8776225729414836 -0.4792045799923461 -0.01189915870675682
-0.8480718698242229 -0.5252626536320847 -0.06980865499510847
-0.8130257231966692 -0.5654910998951059 -0.1385964983683048
-0.7691987702067379 -0.5997803363865997 -0.2204468189755041
-0.7135050999663454 -0.624719787982931 -0.3172312387274878
-0.6579875708613692 -0.6224722600946058 -0.4237695623858176
-0.5909078602044819 -0.601447126219227 -0.5376702103624421
0 0 0
0 0 0
0 0 0
0 0 0
0 0 0
0 0 0
0 0 0
0 0 0
0 0 0
0 0 0
0 0 0
-0.5798971615722051 0.6123602384597154 -0.5373399485931226
-0.6484893757686834 0.6392393249515073 -0.4133214426456532
-0.7015918222748043 0.646785534094012 -0.2990608429798897
-0.7452812181050709 0.6370734660601401 -0.1967061381399684
-0.7845697651137157 0.6107878517227893 -0.106716839614319
-0.8182860187505275 0.5739922983193251 -0.03067300095375709
-0.847271185665901 0.5301446264050921 0.03283615437445724
-0.8727074578177988 0.4806334165764216 0.08586740906345137
-0.895232070503204 0.4262084540186918 0.1300226659684466
-0.9150858381559169 0.3672726408258492 0.1665194166074608
-0.9322144699116192 0.3041705138286311 0.1961032396586678
-0.9463486470259661 0.2374874657299911 0.2191436558362317
-0.9571265413976585 0.1680933457441726 0.2359097515336865
-0.9642259905191308 0.09688208536258593 0.2467429851955209
-0.9674214726715257 0.02463238908178058 0.2519701165261067
-0.9665937202773944 -0.04797226370219412 0.2517841175205307
-0.9617303783175383 -0.1202729613062309 0.2461891431396477
-0.9529307802616201 -0.1915663769392047 0.2350005345874038
-0.940412567441956 -0.26104339009666 0.217900324653431
-0.9245027723300383 -0.3277838227716602 0.1945569055142215
-0.905571452114155 -0.3909082252285266 0.164715222625425
-0.8838828664441831 -0.4498447450016547 0.1280264964794778
-0.8594609101042864 -0.5042925348604975 0.08376146659822319
-0.8319998859071212 -0.5539256610687804 0.03070100747616815
-0.8007514827521879 -0.5980996423012639 -0.03277011976285699
-0.7643629753265581 -0.6355563867774661 -0.1087075028519338
-0.7218080692668883 -0.6630025770227166 -0.1985464530089701
-0.6741999470882034 -0.6745097834116601 -0.3008171927071627
-0.6165691460622597 -0.6691746799549545 -0.4147863737289828
-0.5436217632646991 -0.6440898407752058 -0.5381669401915623
0 0 0
0 0 0
0 0 0
0 0 0
0 0 0
0 0 0
0 0 0
0 0 0
0 0 0
-0.5345638297747274 0.6351993585507607 -0.5574614666443573
-0.5997447744722881 0.6781887202227311 -0.4246954970986127
-0.6522129249617721 0.6959088044494648 -0.3005482264172016
-0.6951390938065821 0.6933127589583636 -0.1899975224241222
-0.7316628144693454 0.675183500880022 -0.09379107666613518
-0.7643644166487074 0.6446890202139818 -0.01109530426878883
-0.7939442705116088 0.6051389060911411 0.05881666138608888
-0.8209077604447063 0.5588358197734502 0.1175286151530435
-0.8456538551122122 0.5069833685469046 0.1668455014397639
-0.8683213258927327 0.4501681481622049 0.2082467607913675
-0.8888021638023686 0.3886989572281175 0.2427835131758352
-0.9067942053891782 0.3228648928591247 0.2710766128452877
-0.9218615042624752 0.2531344615468002 0.293418321405357
-0.9335163556849148 0.1802144684250668 0.3099515430499189
-0.9413121593238212 0.1049600606947494 0.3208033733739079
-0.9449132213609966 0.02827662638109497 0.3260972807272199
-0.9441332874218979 -0.04892021441286253 0.3259127923290504
-0.9389539414283534 -0.1257056769033172 0.320255489680409
-0.9295303629464482 -0.2011385548285524 0.3090575773575612
-0.9161821773849428 -0.2742711082418677 0.2922081056814856
-0.8993575233235456 -0.3442027529592681 0.2695932308063362
-0.8795581448272266 -0.4101907051657127 0.2410830878841198
-0.857235765906137 -0.4717490373116721 0.2063969172415814
-0.8326981717721027 -0.528597706213392 0.1649188276496586
-0.8060346734189523 -0.5804709350202142 0.1155923822886282
-0.7770451191072362 -0.6268655118976335 0.05692550276403727
-0.7452064356687077 -0.6667090678887088 -0.01289910977193465
-0.7098237214279611 -0.6978780930891922 -0.09548011145967487
-0.6699699335903354 -0.7172510698573434 -0.1915494475937149
-0.6228468504956091 -0.7217577082052508 -0.3018735024376994
-0.5654186130526975 -0.7064456429960859 -0.4257186224555016
-0.4956007167400773 -0.6654614903057754 -0.5581585209299751
0 0 0
0 0 0
0 0 0
0 0 0
0 0 0
0 0 0
0 0 0
0 0 0
-0.5658992806813492 0.6895070919516557 -0.4520375805977883
-0.6008379291324072 0.7326935924523759 -0.3196152100496966
-0.639097695478629 0.7427559627264432 -0.1996690147925293
-0.673779282712531 0.7327549333092541 -0.09535033245006221
-0.7049977086492895 0.7091840993615331 -0.006011989023792324
-0.7339300495859435 0.6755950415267727 0.0701286117017316
-0.7612618255057524 0.6342747428253722 0.1348183357019991
-0.7872908746630581 0.5866390697889162 0.1898095900355705
-0.8120566381741303 0.5334253391443153 0.2366884533645459
-0.835380459776483 0.4749622036524112 0.276677416001517
-0.8568996495626898 0.4114170199479565 0.3105785347967265
-0.8761076279928304 0.3430000407098154 0.3388014112217375
-0.8924040180001619 0.270115649043578 0.3614589946300034
-0.9051623540861815 0.1934278848513766 0.3785059657483409
-0.9138117053529375 0.1138329800606911 0.3898592307621531
-0.917912945663249 0.03239119116237909 0.3954575007746077
-0.9172152975566934 -0.04973964296124709 0.3952746713945551
-0.9116886466493588 -0.1313587284913088 0.3893182451668643
-0.9015312424031152 -0.2112758487593613 0.3776293615466183
-0.8871499949131227 -0.2883746950608144 0.3602845011573884
-0.8691101688230192 -0.361692944436725 0.3373806876410006
-0.8480571848464226 -0.4305041794380189 0.3089743722653355
-0.8246267362393827 -0.4943565577028614 0.2749587964320481
-0.7993640783774707 -0.5530169977975373 0.2349239671611534
-0.7726567338901985 -0.6063291131134743 0.18806003872476
-0.7446717285540211 -0.6540183406614494 0.1331316144678279
-0.7152954571875256 -0.6954530698069327 0.06853784810600104
-0.6840710130786237 -0.7293769797597796 -0.007488021239737488
-0.6500628736334965 -0.7537018107909886 -0.09670491576825108
-0.6117930329097961 -0.7650737048077779 -0.200926631123735
-0.5690257654286649 -0.7570794137550979 -0.3209991270183744
-0.5294862517669645 -0.7162155895965229 -0.4546202133744992
0 0 0
0 0 0
0 0 0
0 0 0
0 0 0
0 0 0
0 0 0
-0.4433834052876187 0.7452065661046562 -0.4980746226722071
-0.5281355195720977 0.7724738010696697 -0.3526430201028883
-0.5745377014057215 0.787222558593822 -0.2240247149410656
-0.6099699011263984 0.7845718152486417 -0.111282462397731
-0.6405582405998893 0.7677760251326839 -0.01432185850475436
-0.6686371875581726 0.7404342340767658 0.06842116939551442
-0.6954652615029492 0.7049591715989875 0.1391425040061554
-0.7216547083196907 0.6627589092850378 0.1999127562796545
-0.7473768725759982 0.6145548115179359 0.2524880075937748
-0.7725000745356548 0.560621239594571 0.2982406084989997
-0.796668898875266 0.5009963462684083 0.3381143690980548
-0.8193523105622209 0.4356717441985535 0.3726283973120396
-0.8398847880027138 0.3647568397035851 0.4019278427418146
-0.8575155130721662 0.2886076407205687 0.4258788261445807
-0.8714760713878174 0.2078968054044061 0.4441940739148799
-0.8810646923567468 0.1236145249554167 0.4565571783493903
-0.8857337664568214 0.03701386270276837 0.4627155378048513
-0.8851628533500361 -0.05047485824144837 0.4625354167355485
-0.8793044994862361 -0.1373461780149817 0.4560259033957785
-0.8683947433379163 -0.2221290460251277 0.4433387606052963
-0.8529255452740236 -0.3034982491995062 0.4247432482710503
-0.8335818305222911 -0.3803750974831 0.4005697405419285
-0.8111545694781991 -0.4519979764371415 0.3711146638323068
-0.7864481042588718 -0.5179352769227438 0.3365151233252178
-0.7601976576420573 -0.5780264696828442 0.2966225238607426
-0.7329997458322228 -0.6322628492242276 0.250908473553122
-0.7052460675618042 -0.680631522396061 0.1984155107581831
-0.6770461885673906 -0.7229328083538312 0.1377556283859615
-0.6481185800876476 -0.7585725087451567 0.06715694395406985
-0.6176294672689099 -0.7863171454053127 -0.01546570408232683
-0.5839912182620337 -0.803951030248844 -0.1123254109925591
-0.5445208603536053 -0.8080044676794748 -0.2250018063255887
-0.4929951199712342 -0.7950067482985361 -0.3534403511829623
-0.4027775109275625 -0.768620017440682 -0.4969844519504431
0 0 0
0 0 0
0 0 0
0 0 0
0 0 0
-0.366061186236747 0.742040892797644 -0.5615821590355414
-0.440477133448471 0.7981075776211615 -0.4111011912567258
-0.4982104529770892 0.8244862124935507 -0.2683446104403858
-0.538897746134178 0.830030864199772 -0.1436592624486216
-0.5708149361818351 0.8202461959524515 -0.03696602030594322
-0.5986290375363256 0.7992189368489232 0.05378072517555806
-0.6247021166018891 0.7697582213405667 0.1312232684843897
-0.6502324174962327 0.7334869854763966 0.1979763757970959
-0.6757523486705667 0.6911541344810644 0.2562512939595484
-0.701361084448524 0.64295103354884 0.3077443706709649
-0.7268510379939317 0.5887535824362207 0.3536336914600475
-0.7517797228373921 0.5283136904041983 0.3946034628104902
-0.7755148809638645 0.4614249577579983 0.4308870823796321
-0.7972739585960819 0.3880724839618088 0.4623353567879533
-0.8161755873435309 0.3085581365729286 0.4885174377430999
-0.831312827499975 0.2235823093277473 0.5088515832633987
-0.8418483917700814 0.1342621978010405 0.5227474988134914
-0.847118485489147 0.04208283426477986 0.529735128722663
-0.8467254440802529 -0.05121147644919289 0.5295596350053428
-0.8405983773037228 -0.1437666033768952 0.5222313010801038
-0.829008080289092 -0.2337873292873216 0.5080246918015846
-0.8125317224093418 -0.3196977510614065 0.4874274797801068
-0.7919752398134513 -0.4002676987784456 0.461043369800535
-0.7682709947914973 -0.4746810546950901 0.429461959753875
-0.742372680557742 -0.5425340285174232 0.3931152897842667
-0.7151634812745175 -0.603765946106559 0.3521475221741082
-0.6873810388169604 -0.6585427323203973 0.3063148334359621
-0.6595504954217359 -0.707113457667138 0.2549190106189939
-0.6319093195347265 -0.7496490851188409 0.1967660058690102
-0.6043029247432347 -0.7860537978912948 0.1301437742169898
-0.5760266968216254 -0.8157220408927485 0.05282799021859046
-0.5455731008815752 -0.8372102600831656 -0.03780174606999179
-0.5101560523590961 -0.847879328529246 -0.1443656693752964
-0.4646983801282893 -0.8436904484827487 -0.2687784266735732
-0.4008898046090987 -0.8189072383130794 -0.4107046379077349
-0.320483956360522 -0.7642378669268018 -0.55967000676352
0 0 0
0 0 0
0 0 0
0 0 0
-0.3911361226400673 0.7814265035134121 -0.4861945630844679
-0.4271534738981048 0.8399432032807064 -0.3347167832650855
-0.4652432607680885 0.8631664307371064 -0.1961948550763752
-0.4974333609005577 0.8641143521458239 -0.07659267509871993
-0.5250129537265334 0.8507359178500193 0.02469405797404204
-0.5501917394657945 0.8276918126817465 0.1105229073233567
-0.5745255647403174 0.7975098095647892 0.1841153961724879
-0.5989041538371127 0.7613414664544202 0.2483404638267474
-0.6237291531559683 0.719481739177868 0.30546353381857
-0.6490447517390371 0.6717265107625744 0.3571055935976756
-0.67461415729222 0.6176201755778908 0.4042784405580423
-0.6999630733678184 0.5566431310421585 0.4474372811747584
-0.7244082699786309 0.4883759638414266 0.486540415925053
-0.7470896315583851 0.4126542385109024 0.5211272031442449
-0.7670206643374798 0.3297088944208445 0.5504283290484553
-0.7831685178669815 0.2402688337017068 0.5735136965876719
-0.7945627347267713 0.145599010574557 0.5894666985532124
-0.8004198196832181 0.0474526314483044 0.5975586665984481
-0.8002584204818776 -0.05206382914601043 0.5973908420309982
-0.7939778951036219 -0.1506951916942004 0.5889737356513187
-0.7818788129310525 -0.2462721872908915 0.5727264020948289
-0.7646199251235701 -0.3369295961889928 0.5493949556702787
-0.7431229545551534 -0.4212634484757669 0.5199090126084793
-0.718450109206474 -0.4984025136712345 0.4852054976475429
-0.691681359447041 -0.5679900200551099 0.4460540708381534
-0.663810917260845 -0.6300944604654403 0.4029094650366021
-0.6356681864582988 -0.6850769235398341 0.3558027059453219
-0.6078560471119894 -0.7334399064631543 0.3042645717080877
-0.5806913004683975 -0.7756649998204473 0.2472679146469798
-0.5541288131623266 -0.8120267719369907 0.1831769092459563
-0.5276503564214967 -0.8423466242761858 0.1097144746092378
-0.5001030471955852 -0.8656330712659548 0.0240068347842856
-0.4695143365095003 -0.8795469721815836 -0.07715835365176908
-0.4331784716259547 -0.8796024209144023 -0.1966112734339613
-0.3895398830575852 -0.8579289717573416 -0.3349874011464794
-0.34757039831992 -0.8012741622944465 -0.4869851486966151
0 0 0
0 0 0
0 0 0
-0.2730681973750627 0.7712708396113022 -0.5749565649226122
-0.3517808600541146 0.8384245942649781 -0.4162864713525936
-0.3930174338537895 0.8798371802726916 -0.2672523767841561
-0.4240944075969938 0.8955847802431728 -0.1344315247318958
-0.4503063970627988 0.8926375181259356 -0.02055261536374999
-0.4739082607851445 0.8773085298964676 0.07576743185892748
-0.4964195063528022 0.8536368891644458 0.1577077524095977
-0.5188518340548144 0.8237138337353641 0.2286663386048402
-0.5418036714402681 0.7883109476123579 0.2915726864580283
-0.5655472186920956 0.7473855049402713 0.3486706905302055
-0.590085339821923 0.700428051154691 0.4014969948615882
-0.6151797967241822 0.6467018819876412 0.4509218264134439
-0.6403617102686404 0.5854300708573106 0.4972006759426475
-0.6649387889142951 0.5159676491107211 0.5400312880457443
-0.6880137010241119 0.4379761637213009 0.5786311668196552
-0.7085296016840397 0.3515924830385971 0.6118566248789085
-0.725353113801714 0.2575651695296054 0.6383753157378056
-0.7373962247452995 0.1573176192237917 0.6568850541861468
-0.7437617084110888 0.05290356145779993 0.6663480579145546
-0.7438833002423738 -0.05316038456179203 0.6661918711105351
-0.7376239819317861 -0.1581627166047732 0.656426245937267
-0.7253042765479826 -0.2595110315799782 0.6376423220815121
-0.7076515398269841 -0.3550172584430197 0.6108944625613328
-0.6856863181662105 -0.4430928058767075 0.5774972194391692
-0.6605775312184182 -0.5228220503684597 0.5387897817311486
-0.6335011616032012 -0.5939220497951389 0.4959161995887357
-0.6055258859176788 -0.6566202349217786 0.4496534983460908
-0.5775333725589585 -0.7114915246524728 0.4002936596155055
-0.5501665083242894 -0.7592847174502708 0.3475680235072288
-0.5237910321968599 -0.8007491945108659 0.2905919511623591
-0.4984531314417852 -0.8364476595096698 0.2278152511502976
-0.4738168380955037 -0.8665182293665954 0.1569833179435282
-0.4490708366038849 -0.8903292157227443 0.07516163477738724
-0.4228168558180365 -0.9059708021854463 -0.02104309919208456
-0.3930012202556143 -0.9096053552967616 -0.1347892373042054
-0.3568584271733872 -0.89506739353438 -0.2674068510470643
-0.3090937891042868 -0.8552539659229805 -0.4159347103935511
-0.2237773557419231 -0.7891357485904984 -0.5720039032678589
0 0 0
0 0 0
-0.3001458940052483 0.8004212703155449 -0.5188817132432391
-0.3279480577753079 0.8740995948171585 -0.3583294151222891
-0.3544163226286977 0.9109468190423933 -0.2111041523298284
-0.3775109823705544 0.92227798084186 -0.08299870025416131
-0.3983941963060387 0.9168513101740108 0.02580192593324022
-0.4182366497536932 0.9006554094564465 0.1178895170048914
-0.4379308957145591 0.8771966942730409 0.1968311208500637
-0.4580933465846941 0.8481393296183654 0.2661017913681608
-0.4791043009754939 0.8139271978183982 0.3286055164452853
-0.5011397266073998 0.7742461160133991 0.3865254535655133
-0.5241827869366381 0.7283369100284794 0.4413136655141157
-0.5480169825942429 0.675216521776879 0.4937206047025324
-0.5722103053809343 0.6138612904745188 0.5438287253104749
-0.5961011244690859 0.5433915250497988 0.5910914480101572
-0.6188010598340709 0.4632725435263412 0.634400345809225
-0.6392300655158684 0.3735236319343808 0.6722090595396102
-0.6561976820524635 0.27489803834388 0.7027344239352872
-0.6685323626747777 0.1689810676451831 0.7242305425995046
-0.6752449231826321 0.0581509300121327 0.7352977376918852
-0.6756916184480501 -0.05462346442363149 0.7351578836504539
-0.6696932704677993 -0.1661260089827579 0.7238183975484481
-0.6575726591068304 -0.2732993036590928 0.7020724240522673
-0.6400987874390571 -0.3736096548797844 0.6713340212589083
-0.6183565427568567 -0.4652833358523508 0.6333613529478219
-0.5935820181371977 -0.5473800167896046 0.5899453406575756
-0.567004955257105 -0.619720317339013 0.5426344155977583
-0.5397269810512887 -0.6827195431882955 0.4925330560216504
-0.5126442588367541 -0.7371826040862046 0.4401791363915338
-0.4864077148594254 -0.7841008000288396 0.3854782358569216
-0.4614048611023033 -0.8244635138917896 0.3276667032402993
-0.4377455663180114 -0.8590724987104597 0.265279590485755
-0.4152356508143182 -0.8883215623670591 0.1961228087871369
-0.3933281956196512 -0.9118866321329789 0.1172846992056576
-0.3710575898722303 -0.9282654775398669 0.02528770859318699
-0.3469996541283495 -0.934146975202401 -0.08343062240574499
-0.3193836194396804 -0.9237325511388721 -0.211452778653012
-0.2867869306123265 -0.888339258505058 -0.3586176490757859
-0.2524427700327422 -0.8163293456948273 -0.5194988423621856
0 0 0
0 0 0
-0.2803348531635815 0.8392542205198569 -0.4659020534848074
-0.2924279387724274 0.9058360830964397 -0.3065075711720814
-0.3089689911166856 0.9369294308588468 -0.163405642861114
-0.3257317097986966 0.9446001805212851 -0.04036523492775108
-0.3421039136910722 0.9374948010098252 0.06378409140843125
-0.3584154725289164 0.9210542028344926 0.152307269993229
-0.3751126831375474 0.8982549502450604 0.2289727479627068
-0.3925585647027238 0.8703677750638573 0.2972502471133159
-0.4109997985539855 0.837552680569196 0.3599787116760338
-0.4305614541082164 0.7992681985817197 0.4192698188185627
-0.4512331946122228 0.7545432500639296 0.4765008791838788
-0.4728435552448177 0.7021740563518782 0.532325621072093
-0.4950268730012476 0.640901748401514 0.5866799331002286
-0.5171936274495578 0.5696083727386042 0.6387934356516565
-0.5385175212924798 0.4875487084456716 0.687237321566546
-0.5579575193013814 0.3946046608197846 0.7300483328618393
-0.574329837550936 0.2915186333779048 0.7649589035315514
-0.5864368335258526 0.1800333598635667 0.7897340246060103
-0.5932390939245862 0.06286401913589941 0.8025680610001973
-0.5940357418370459 -0.05654221381397685 0.8024490734477325
-0.5886011648627316 -0.1744329069125585 0.789380662106863
-0.5772335918937996 -0.2872621662555954 0.7643832992861135
-0.5606986411257137 -0.3921432884714482 0.7292740740946276
-0.5400895540232079 -0.4871292580453314 0.6863004878267365
-0.5166495003841809 -0.5712795443464522 0.6377405240096365
-0.4916046161072194 -0.6445473052700607 0.5855626974894971
-0.4660393533991496 -0.7075586156781007 0.5311949985297224
-0.4408240820872343 -0.7613591041146596 0.4754013496338327
-0.416586145121635 -0.8071771595477961 0.4182355996290214
-0.393707198715059 -0.8462215504931132 0.3590316548174708
-0.3723275846027788 -0.8794996174493706 0.2963993803135747
-0.3523419992047006 -0.9076195551759904 0.2282145014204219
-0.3333770771576698 -0.930520986019758 0.1516259179778502
-0.3147594893067122 -0.9470682953419136 0.0631514675169066
-0.2955341639180972 -0.9544522921919794 -0.04099243694521116
-0.2747432865715789 -0.9474105701825589 -0.1641016087374078
-0.2526086119842565 -0.9174190900416294 -0.3074591068395521
-0.2343504690873926 -0.8522187877782467 -0.4677638243775312
0 0 0
0 0 0
-0.2301547466619218 0.8778932474518266 -0.4199193239986365
-0.2417729839283801 0.9341532759377391 -0.2624947262273221
-0.2554375889323517 0.9588206676624585 -0.124155408354785
-0.2687613514403127 0.9631882186934676 -0.005982586571119419
-0.2817578570804101 0.954856483244222 0.0941361056127312
-0.2948332163386672 0.9384826670419899 0.1797878143956074
-0.308363404484441 0.9165108760174814 0.2547936908882026
-0.322633473214036 0.8898617223704564 0.3225736458883955
-0.3378438971265739 0.8584548489105377 0.3858973614269914
-0.3541125232263091 0.821559295627354 0.4468161195196316
-0.371460039111448 0.7780236198975392 0.506652431381564
-0.3897800753112028 0.726448856007165 0.5659890038651578
-0.4088007259046841 0.665358148187192 0.6246442996944048
-0.4280457858188816 0.5934036933732304 0.6816515693033388
-0.4468101483012463 0.5096280811166288 0.7352821977393444
-0.4641662734048643 0.4137672086183191 0.7831643299497523
-0.4790207772281076 0.3065398288918753 0.8225402289777193
-0.4902303609366974 0.1898355927251415 0.8506683495643697
-0.4967694865645234 0.06670098032654583 0.8653155819941629
-0.497914917693927 -0.05893771889967635 0.8652208273202582
-0.4933939473735409 -0.1827907474213608 0.8503822407319517
-0.4834441238418995 -0.3008282875912811 0.8220608982962484
-0.4687645015124717 -0.4098262143589627 0.7824974863512117
-0.4503781675119057 -0.5076875797146581 0.734447293978329
-0.4294549016991386 -0.5934979288750241 0.6806825220524171
-0.4071446573317811 -0.6673639049730994 0.623585316011564
-0.3844564168791427 -0.7301337152900867 0.5648876183075218
-0.3621916498622963 -0.7830923408126453 0.5055527613717471
-0.3409233599474232 -0.8276925501462113 0.4457536371972978
-0.3210016187346506 -0.8653399003584653 0.3848958529489953
-0.3025661900717352 -0.8972174284796468 0.3216435708324417
-0.2855491837733865 -0.9241106961002403 0.2539312603825722
-0.269656644237121 -0.9461784869652916 0.1789736433747867
-0.2543284128795527 -0.962603764050313 0.09333301580007179
-0.2387079816312696 -0.9710673535143132 -0.006833333317844505
-0.2217538198939992 -0.9670390292678324 -0.125142955195838
-0.2029591460180241 -0.9429897515159851 -0.2637762566711688
-0.1854313896891669 -0.8874746882025046 -0.42190505746887
0 0 0
-0.06174993903433526 0.8336253870941669 -0.5488676152054844
-0.1479600890524406 0.9117225151668987 -0.3832360465631297
-0.1794549730435452 0.9566928323259367 -0.2292045750549435
-0.1960224004414916 0.9760241110433 -0.09461581890620088
-0.2078881313097468 0.9779490299317206 0.01995544327113019
-0.2181984569408759 0.9688499137352105 0.117129321879259
-0.2281424179693099 0.9527106401722389 0.2007323422513637
-0.2382741180546052 0.9315555657851154 0.274644629512526
-0.2489072924122084 0.9060345513534923 0.3422667841577658