# OOMMF: rectangular mesh v1.0
# Segment count: 1
# Begin: Segment
# Begin: Header
# Title: 
# Desc: time = 2.6e-10
# Desc: stepsize = 9.141558323609872e-14
# Desc: step = 1662
# meshunit: m
# valueunit: (none)
# valuemultiplier: 384000.0000000001
# xmin: 0
# ymin: 0
# zmin: 0
# xmax: 9.357999999999999e-08
# ymax: 9.357999999999999e-08
# zmax: 2.3395e-08
# ValueRangeMaxMag: 1
# ValueRangeMinMag: 0
# meshtype: rectangular
# xbase: 1.16975e-09
# ybase: 1.16975e-09
# zbase: 1.16975e-09
# xstepsize: 2.3395e-09
# ystepsize: 2.3395e-09
# zstepsize: 2.3395e-09
# xnodes: 40
# ynodes: 40
# znodes: 10
# End: Header
# Begin: Data Text
0 0 0
0 0 0
0 0 0
0 0 0
0 0 0
0 0 0
0 0 0
0 0 0
0 0 0
0 0 0
0 0 0
0 0 0
0 0 0
0 0 0
0 0 0
0 0 0
-0.8033752615724675 0.07831040061194887 -0.5903013385122592
-0.8156998695455395 0.1035936463752104 -0.569123957722812
-0.830035953931307 0.08984757759223065 -0.5504250430187134
-0.840038096752471 0.05971713104821266 -0.539230804260899
-0.8435924490457487 0.0245630738127478 -0.5364218818410232
-0.840526875296797 -0.006890153226215482 -0.5417260356419294
-0.8324840367705292 -0.0233294452180824 -0.5535576442504068
-0.8247812700475963 -0.002317906377972548 -0.565447153931025
0 0 0
0 0 0
0 0 0
0 0 0
0 0 0
0 0 0
0 0 0
0 0 0
0 0 0
0 0 0
0 0 0
0 0 0
0 0 0
0 0 0
0 0 0
0 0 0
0 0 0
0 0 0
0 0 0
0 0 0
0 0 0
0 0 0
0 0 0
0 0 0
0 0 0
0 0 0
0 0 0
0 0 0
-0.7373337925898703 0.2678004750701514 -0.6201788321583046
-0.7673296506057976 0.304633936818705 -0.5642724269708037
-0.8078216949423968 0.2935603295765348 -0.511122727022883
-0.8490032511064316 0.2508486386783755 -0.4650467074218615
-0.8868750671268635 0.1738588206729729 -0.428048742298028
-0.9039262959361811 0.1388535617553353 -0.4045206297618848
-0.9161007165745894 0.1051164639483333 -0.3869237729818651
-0.9241471406364018 0.06688391517473682 -0.3761364172005423
-0.9274621918466371 0.02625334159343071 -0.3729941618178622
-0.9259389920726867 -0.01340120154806845 -0.3774352802222979
-0.9200353237303907 -0.05002373057159251 -0.3886291670320373
-0.9093208297070849 -0.08923242331448625 -0.4064150628240081
-0.8806812852132337 -0.169833188625297 -0.4422184549705389
-0.8464574520828149 -0.21849719820038 -0.4855602498063984
-0.8114863142916863 -0.2368452092708558 -0.5342230887585623
-0.7851592635662158 -0.2085076041274185 -0.5831376422914238
0 0 0
0 0 0
0 0 0
0 0 0
0 0 0
0 0 0
0 0 0
0 0 0
0 0 0
0 0 0
0 0 0
0 0 0
0 0 0
0 0 0
0 0 0
0 0 0
0 0 0
0 0 0
0 0 0
0 0 0
0 0 0
0 0 0
-0.710296812547956 0.3496089057470243 -0.6109435744048557
-0.7502046914505688 0.3854025530527425 -0.5372688275211804
-0.8095265681427416 0.3546886865632061 -0.4678276083079131
-0.846587060540777 0.340295445456485 -0.409254638002428
-0.880144094717234 0.3134381943218786 -0.3565148957261394
-0.9109537715879489 0.2705872053869369 -0.3113611894738618
-0.9366512590120443 0.2152314457972411 -0.2763328495332773
-0.9529727233085876 0.1675005166747812 -0.2525600236448653
-0.9640146116459515 0.1221775142608051 -0.2361111677624656
-0.971113460243467 0.07605658194629038 -0.2261725970947997
-0.9744222288010574 0.02884182238061259 -0.2228664831241882
-0.97389283015808 -0.01883224363770733 -0.2262257765292326
-0.9693531620390866 -0.06726733647249432 -0.2362827811938906
-0.9597102683120621 -0.1195479697350123 -0.254292123017261
-0.9414314178934439 -0.1803790551790578 -0.2849039870831038
-0.9171125727650994 -0.2298777259931688 -0.3256697099338365
-0.8890889737801299 -0.2645623498811119 -0.3735338802946518
-0.8570853714426033 -0.2880886116000917 -0.427094389948435
-0.8051239111165872 -0.3278927595995847 -0.4942285159220355
-0.7688935333727729 -0.3030709764843211 -0.5629837631320922
0 0 0
0 0 0
0 0 0
0 0 0
0 0 0
0 0 0
0 0 0
0 0 0
0 0 0
0 0 0
0 0 0
0 0 0
0 0 0
0 0 0
0 0 0
0 0 0
0 0 0
0 0 0
0 0 0
-0.717657674837505 0.4249264198808586 -0.5517290996803246
-0.7717872839230195 0.4318516421162932 -0.4667424852916101
-0.8142206012255033 0.4292416670492012 -0.3908918057580666
-0.8553856102290807 0.4049608080859556 -0.3229894761867522
-0.8878390380203506 0.3756868852970333 -0.265708875995725
-0.9155774454408779 0.338879382480439 -0.2165149083311173
-0.9397715221497033 0.2933578290091232 -0.1754157071515636
-0.9597681104286735 0.2413735879451567 -0.1434711303595764
-0.974464946573755 0.1892928548118709 -0.1207736851146801
-0.9848720555233287 0.1376120420683957 -0.1053088796209457
-0.9917027435356347 0.08551508627229402 -0.09598353235704864
-0.9951784458774945 0.03260858502234361 -0.09250157319578142
-0.9952591057754149 -0.02120257198291797 -0.09491977303191364
-0.9916822423915193 -0.0762687864768712 -0.103679324528436
-0.9837783138905924 -0.1332667330481847 -0.1200841662387096
-0.9705394602710177 -0.1914322584977962 -0.1463107872416579
-0.9524795899504094 -0.2442739743280519 -0.1819693825726665
-0.9301572921187101 -0.2895552074970068 -0.2257547202823302
-0.9026976820786226 -0.3285754090517527 -0.2778040592510392
-0.8667458019225548 -0.3637021562788064 -0.3412806123526117
-0.8284515374884256 -0.3783322494567961 -0.4129561224319403
-0.7796225463588639 -0.3830019178354059 -0.4954777655387995
0 0 0
0 0 0
0 0 0
0 0 0
0 0 0
0 0 0
0 0 0
0 0 0
0 0 0
0 0 0
0 0 0
0 0 0
0 0 0
0 0 0
0 0 0
0 0 0
-0.611579369801544 0.5033811619903397 -0.6103917432161095
-0.6653075131938415 0.5463173919672436 -0.5088253336086311
-0.7498517536232744 0.5179317081588642 -0.4116662401408943
-0.8024213584407597 0.4984293915741456 -0.3281586584765243
-0.8415344932441486 0.4757955574861805 -0.2558090775495034
-0.8747453907874478 0.4444271807739139 -0.1931449773757142
-0.9025330710843206 0.4071203550613194 -0.1403106271593469
-0.9263878424209741 0.364156376399841 -0.09589420703018935
-0.9470454580480533 0.3155744813301103 -0.05930975572183816
-0.9644120463235808 0.2626240014906098 -0.03062741822326675
-0.9781348981107473 0.2077520570786968 -0.009550072117383138
-0.9883734342712109 0.1519622167939631 0.005043718270914363
-0.9953462571835699 0.09533589242629673 0.01403196087293665
-0.9991283350074258 0.03776717417064942 0.01778231538501634
-0.9996516468056625 -0.02081382240028013 0.01622867326110459
-0.9967206683710813 -0.08043200586544964 0.008865758532959497
-0.9900191380219188 -0.140832476676422 -0.005321641055295852
-0.9792531125440271 -0.200761322594663 -0.02753602954087426
-0.9645220382012012 -0.2575492005013301 -0.05801419779093551
-0.9458699258939823 -0.3098411015042065 -0.09658454901262346
-0.9227258579162613 -0.3576015135221323 -0.1438685117021068
-0.8938482949982164 -0.400536611029634 -0.2015084334554672
-0.8587066273227628 -0.4358105875733009 -0.2696146508463128
-0.8108306826240587 -0.4686120996457089 -0.3506512572072749
-0.7336489680057903 -0.5097333020297276 -0.4493675027701812
-0.6827512935788338 -0.4809033364402275 -0.5500751331564496
0 0 0
0 0 0
0 0 0
0 0 0
0 0 0
0 0 0
0 0 0
0 0 0
0 0 0
0 0 0
0 0 0
0 0 0
0 0 0
-0.5939710864357333 0.543694908225794 -0.5929537884588474
-0.6598049942903034 0.5748474426727992 -0.4839501907863193
-0.7136871447598395 0.5877184511043335 -0.3811006187820616
-0.7684047994329559 0.5721914828776523 -0.2866199070732377
-0.811336444690597 0.54691867953616 -0.2064294830959089
-0.8455697333311641 0.5154855652837351 -0.1388756928276912
-0.8744846811751081 0.4780970165216548 -0.08185221550551533
-0.8994413106733397 0.435709395728911 -0.03409767041560322
-0.9213216900898222 0.3887593186599878 0.005703992027953753
-0.9405354366504757 0.3375207385910115 0.03837764226312574
-0.9570536890371557 0.2826886847923284 0.06430663877667682
-0.9706497729134056 0.2253843784379148 0.08391007269278439
-0.9811924157794027 0.166378993309629 0.0978747863458875
-0.9886133149078428 0.1060120906065353 0.1067948979687589
-0.9928327953458522 0.04442488563131064 0.1109480510076011
-0.993736325093929 -0.01824911179716394 0.1102501070631096
-0.9911843328183091 -0.08175282688463051 0.104259741376498
-0.9850459087435324 -0.1455211123062247 0.09223970696390452
-0.9752683681160143 -0.2084762083018168 0.0734117206202346
-0.9619256243798698 -0.2691790169543702 0.04734712232940982
-0.9450329524480322 -0.3266875703693234 0.01370949136702731
-0.9243142873139902 -0.380580620994282 -0.02831058443120018
-0.8991044831804267 -0.4303416991778278 -0.08010711749649474
-0.8682814241088129 -0.4749760946586649 -0.1431260914381922
-0.8289942091566668 -0.5142227987454547 -0.2198715862386576
-0.7784782259502659 -0.5443763125318377 -0.3124517275925434
-0.7275325846373247 -0.5471010493120154 -0.4139767869490086
-0.6658395996990981 -0.5314104746987518 -0.5236988971279121
0 0 0
0 0 0
0 0 0
0 0 0
0 0 0
0 0 0
0 0 0
0 0 0
0 0 0
0 0 0
0 0 0
-0.5545717514483862 0.5833501497898481 -0.593424616304068
-0.6259421158360844 0.6186127035874548 -0.4748839759171337
-0.6816143207134113 0.6345212637551434 -0.3643963276996218
-0.7275921235249573 0.6328907351349261 -0.2646866433441926
-0.7689505049287038 0.6143904929168635 -0.1767468335876615
-0.8042646653120346 0.5853872625665115 -0.102372364217138
-0.8344684624488456 0.5495816839023981 -0.04027850415871034
-0.8609745954833009 0.5085161706918649 0.01157799970840179
-0.8846519803451034 0.4630110122942684 0.05487874056247104
-0.9059695743597843 0.413452835031603 0.0909718832314714
-0.9250717299559497 0.3600820965540415 0.1207608304772365
-0.9418353513221729 0.3032906398882922 0.1447789997064101
-0.9559884095044445 0.243668376456513 0.1634377043653296
-0.967249968192067 0.1817641700007347 0.177170216279116
-0.9753782828177886 0.1179804081301127 0.1863272087078892
-0.9801678276071955 0.05263370474850442 0.1910516235163616
-0.9814471100830815 -0.01393554653287277 0.1912259675159139
-0.9790924211455689 -0.08125359288098717 0.1864829335334408
-0.9730555288648753 -0.1486190921305527 0.1762818856257987
-0.9633902207603049 -0.2150801665168837 0.1600618771428102
-0.9502371774146108 -0.2796058502793548 0.1373676641305063
-0.9337265354294463 -0.3414031105472662 0.107697136190214
-0.9138571039369638 -0.3999204245386128 0.07020575204924664
-0.8904013430591763 -0.4545648666581612 0.02358453473067985
-0.8627917888672154 -0.5044245560574692 -0.03385552110860044
-0.8299618506841273 -0.5479947345917155 -0.1042357772971105
-0.7911112686651049 -0.581751572899935 -0.1889657853145358
-0.7472899485238491 -0.5996531230864866 -0.2863107836038406
-0.6941613622959193 -0.6010449360783604 -0.3960870963690087
-0.626944503213275 -0.582893398496509 -0.5168905840502892
0 0 0
0 0 0
0 0 0
0 0 0
0 0 0
0 0 0
0 0 0
0 0 0
0 0 0
-0.5149738098444436 0.6007142834321202 -0.6115098730641498
-0.5826411189845838 0.6523138748380723 -0.484784421327801
-0.6376055631520663 0.678502212019955 -0.3648203586994071
-0.6826826385335053 0.6839601943889735 -0.2571825568274964
-0.7209213386150038 0.6735239908068023 -0.1632110821520058
-0.7549413789866393 0.6505830644266126 -0.08249357899272568
-0.7854492925557817 0.6187561211733607 -0.01450073564059713
-0.8130729346327289 0.5806218257582419 0.04231664472624377
-0.8384161309412563 0.5375733151882902 0.08985166762484084
-0.8618502427260974 0.4902833912115091 0.1297549822361679
-0.8835052706390774 0.4390357623066127 0.163297385676628
-0.9032990321144035 0.3839797054218404 0.1913385596405958
-0.9209749116017258 0.325327065331509 0.2144003562566555
-0.9361657911131445 0.2634223103671919 0.2328138697550267
-0.9484751304311918 0.198678499122143 0.246823380051618
-0.9575332846343179 0.131522367304526 0.2565772314840639
-0.9630268396856233 0.06240357571664706 0.262078422963236
-0.9647182533319677 -0.008151233340969458 0.2631582206261809
-0.9624684929308024 -0.07948177661245405 0.2594938290249632
-0.956260749965645 -0.1507641485998715 0.2506702008059533
-0.9462113655012305 -0.2210520171830608 0.2362626874806848
-0.9325475487374444 -0.2894064673434721 0.2158679364879253
-0.9155457086891019 -0.3550441753003217 0.1889965314133677
-0.8954551393528424 -0.4173341365791349 0.1548945184708897
-0.8724234026266413 -0.4756433643788593 0.112431296673622
-0.8464183616495833 -0.529116399961058 0.06009818927957829
-0.8171728961170555 -0.5763795066983138 -0.003888715709819289
-0.784274153384959 -0.6150975196850966 -0.08104994515449752
-0.7470709399884173 -0.6420937058240618 -0.1720484919025587
-0.703234292480775 -0.6544202441257488 -0.2778410947960334
-0.6501362636895179 -0.6471793466037487 -0.3980976412456847
-0.5859023376202992 -0.6143690262731523 -0.5284592229559882
0 0 0
0 0 0
0 0 0
0 0 0
0 0 0
0 0 0
0 0 0
0 0 0
-0.554649068253481 0.6577135164481146 -0.5096835698421133
-0.5914385506441071 0.7100585442258999 -0.3821221069027448
-0.6317114154313044 0.7283416823862985 -0.2654412954166584
-0.6680353159297566 0.7259217176829394 -0.1636046346130823
-0.7004236895681051 0.709614272225056 -0.07651300377260255
-0.7301049036072288 0.6833297546850973 -0.002697422970709496
-0.7578535021187207 0.6497079015340974 0.05947866853376437
-0.7841131648728399 0.6104614388145069 0.1118184975467851
-0.8091217383717755 0.5665344856783123 0.1560791114513588
-0.8329339519470318 0.5183498691824943 0.1937380830203249
-0.855437182025068 0.4660416370119382 0.2259035638945135
-0.8763698165247429 0.4096459741557255 0.2533103245870456
-0.8953436852837781 0.3492484574955568 0.2763787259530597
-0.911883636455595 0.2850588378622241 0.2953128722578103
-0.9254821033102041 0.2174169128736303 0.3101818215966566
-0.9356537944150146 0.1467758252408712 0.3209498934750504
-0.9419802890389813 0.07370464015735789 0.3274763519421077
-0.9441479374997643 -0.001094555544929325 0.3295200662525719
-0.9419815622559289 -0.07677195615664376 0.3267672001865572
-0.9354708503960778 -0.1523489266599261 0.3188794327089888
-0.9247785561449687 -0.2267847204089411 0.3055377434679137
-0.910220261307169 -0.2990871385318239 0.2864366587410799
-0.8922170829394216 -0.3684063679009827 0.2611999712884258
-0.8712337626931014 -0.4340443843641956 0.2292535782611181
-0.8477112546085045 -0.4953683475478644 0.1897256678938634
-0.821990842655457 -0.5516655830254747 0.1414077052205227
-0.7942306266940827 -0.6019490578474426 0.08279518933911799
-0.7643090531975298 -0.6447336897464975 0.01225318351131451
-0.7316673642849171 -0.6778626567410383 -0.07186853717965125
-0.6952401147156126 -0.6980491970308029 -0.1713724056400912
-0.6550445696099328 -0.6989284786452205 -0.2870811619790034
-0.6183756648423974 -0.666803107150104 -0.4159148391506239
0 0 0
0 0 0
0 0 0
0 0 0
0 0 0
0 0 0
0 0 0
-0.4345913229912115 0.7104578371774232 -0.5535160734557993
-0.5230160703727788 0.7455068475597493 -0.4131267727627209
-0.5718272631105042 0.7681727516544808 -0.2879656312463921
-0.6090687264400655 0.7729152078040655 -0.1778689630539121
-0.640931298563333 0.7630619249274437 -0.08332808198886696
-0.6697955606615493 0.7425387498816743 -0.003179912300745505
-0.6970070661674426 0.7141508351237789 0.06457348066089422
-0.7232937530252584 0.6796809982721018 0.1219831440096326
-0.7489799057260185 0.6401649994318106 0.1709323676812385
-0.7741308077091906 0.5961004952612932 0.2130391797410897
-0.7986283105437489 0.5476321021039724 0.2495834576714194
-0.8222078325941493 0.4947141598536423 0.2814821132170488
-0.8444770466595872 0.437252683858165 0.3093034240417206
-0.8649336988288149 0.3752194774626195 0.3333167267974755
-0.8829939331584525 0.3087305631215483 0.3535635068838653
-0.8980371205469869 0.2380819954281203 0.3699274166274242
-0.9094598664098581 0.1637637201043547 0.3821834577363924
-0.9167327303788403 0.08646330772758369 0.3900323031095767
-0.9194540343476517 0.007065497685113309 0.3931340197239206
-0.917397557658901 -0.07336990962376015 0.3911503260426659
-0.9105462186949915 -0.1536612618415241 0.3837887442715361
-0.8991024847111833 -0.2325984032790568 0.370827055078522
-0.8834691482744603 -0.3090521636886841 0.3520923517580887
-0.864203068518542 -0.3820638580985177 0.3273839713517006
-0.8419517604405357 -0.4508709437730724 0.2963656949652929
-0.8173789072476505 -0.5148672194691331 0.258463669212444
-0.7910783994886047 -0.5735096900151225 0.2127947398816632
-0.7634684104277264 -0.6261877299952071 0.1581294187759185
-0.7346530315834982 -0.6720536362452465 0.09289151303922724
-0.7042380411973685 -0.7098020272928839 0.01516124603733422
-0.6711147026705599 -0.7373200281040997 -0.07722844046059002
-0.6330972319496765 -0.7513774846489665 -0.1860638881144035
-0.5846232153946678 -0.7488467868244486 -0.3121605130126142
-0.5011030573190972 -0.7338604719294699 -0.4586333325052907
0 0 0
0 0 0
0 0 0
0 0 0
0 0 0
-0.3617892461078677 0.7019469743310605 -0.6134973403594915
-0.4389272901247525 0.7664690405450039 -0.4689008891756997
-0.4995133894138434 0.8009446887702375 -0.3301120708593382
-0.5424160498311684 0.8138938987653742 -0.2082343642102557
-0.575936071005237 0.8108515580047944 -0.1040066968817272
-0.6048126022338113 0.796208446563568 -0.01593191137292104
-0.6314877018603388 0.7731892877362787 0.05832330348165633
-0.6572542434176744 0.743849483230749 0.1212633737235107
-0.6827595003780668 0.709338537678328 0.1751522298112794
-0.7082512957297251 0.6701864262005446 0.2218789224638223
-0.733715460035063 0.6265190072729551 0.2629364129048046
-0.7589521364665573 0.5782161773048363 0.2994289679637386
-0.7836127948454271 0.5250407087515824 0.3320892077562499
-0.8072186825954119 0.4667493337572865 0.3613074285232125
-0.8291750113227364 0.4031931404357954 0.3871744982607458
-0.8487958755470831 0.3343983393742749 0.4095403670921671
-0.8653454254033216 0.2606261039925597 0.428078647740346
-0.8780962541768457 0.1824069239976641 0.4423513111524621
-0.8863978089924303 0.1005552768429755 0.4518711768994024
-0.8897480210233534 0.01615490541915924 0.4561660641870714
-0.8878571925167407 -0.06948879535956966 0.4548416350948604
-0.8806928902745328 -0.1549400475278665 0.4476311145261814
-0.8684941560560918 -0.2387541358607295 0.4344126649924154
-0.8517498768709539 -0.3196092087740775 0.4151771921928301
-0.8311452961961094 -0.3964074112040527 0.3899469976209354
-0.8074864755382906 -0.4683229606328583 0.358663068027394
-0.7816124728192659 -0.5347866361331088 0.3210688339698912
-0.7542971933069613 -0.5954210198017033 0.2766036032801086
-0.7261373336585122 -0.6499303291185183 0.2243103652513635
-0.6974140760333272 -0.6979436172463768 0.1627523078042929
-0.6679126556042378 -0.7387841341061161 0.08994824999281723
-0.6366602108709812 -0.7711369746185357 0.003397391630179404
-0.6014562165287548 -0.7926657221467589 -0.09965677364069221
-0.5578945439919899 -0.7997385428296828 -0.2217474710038984
-0.4983569670681874 -0.786901319224924 -0.3639047226633245
-0.4237563456619274 -0.7442533973955047 -0.5162532711533141
0 0 0
0 0 0
0 0 0
0 0 0
-0.3945246664098948 0.7436079738085736 -0.5398124386140696
-0.4324422472664682 0.8112119872054436 -0.393609977761389
-0.4727840731572348 0.8424352775077816 -0.2584144411197657
-0.5069055040959424 0.8503331235244637 -0.1413520037154309
-0.5359531747819586 0.843169538315097 -0.04265353559372036
-0.5621516252307044 0.8260646152450429 0.04003500581411137
-0.5871137053699635 0.8020383163262479 0.1096906382117852
-0.6118041355035881 0.7727162458745863 0.1691310235947046
-0.6367225445371254 0.7388260847369909 0.2207270209792543
-0.6620475547263714 0.7005377430882206 0.2663454632421846
-0.6877280803186937 0.6576838111729721 0.3073793943356616
-0.713533825960081 0.6099081668257307 0.3447919767773678
-0.7390801139336133 0.5567775627081761 0.3791560771669361
-0.7638379681172743 0.497882435742578 0.4106880064495563
-0.7871443431915452 0.4329328973953709 0.439286796221329
-0.8082228836279444 0.3618525742145539 0.4645842064840671
-0.8262257337132205 0.2848583410732724 0.4860110723749336
-0.8402973546940075 0.2025208236913993 0.5028773922792809
-0.8496576552602122 0.1157890553356718 0.5144655124711377
-0.853692742833139 0.02597201394443706 0.5201289795096031
-0.8520389464652974 -0.06533814028405155 0.5193847910080992
-0.8446414752641499 -0.1563938599158093 0.5119782601285272
-0.8317733656443295 -0.2454581705562637 0.4978989402598445
-0.814008559037869 -0.3309685725420719 0.4773362230153448
-0.7921548541175431 -0.411666514157149 0.4505789256275919
-0.7671609424010176 -0.48666108537201 0.4178816536280567
-0.740011553803653 -0.5554269095851408 0.3793202451040576
-0.7116205286934676 -0.6177402961961006 0.3346537757109325
-0.6827219424601955 -0.6735668583809502 0.2831932848324514
-0.6537539270349639 -0.7228925085995735 0.2236788409684243
-0.6247213869828607 -0.7654761976862274 0.1541732124010064
-0.5950229296275047 -0.8004745714281406 0.07202897829648337
-0.5632550435373195 -0.8258755372579664 -0.02594904407943821
-0.5272463776220938 -0.8376131871654066 -0.1428824900783485
-0.4856944206047826 -0.8280871355733754 -0.2799511130380911
-0.4467398477633565 -0.7836265530711641 -0.4316861518999404
0 0 0
0 0 0
0 0 0
-0.2796358342017266 0.7290290733954735 -0.6247562807803064
-0.360965802484362 0.8044579052042902 -0.4717532916590463
-0.4043908483215931 0.8542516926980002 -0.3266834665488036
-0.4375327527973972 0.8774367936676138 -0.1966462899416823
-0.4655554126143861 0.8809032909708941 -0.08524992517355322
-0.490646014769424 0.8713206146451397 0.008177694375410041
-0.5143212227748167 0.8532357574106025 0.08638531171080119
-0.5376191085278206 0.829268453847485 0.1525762943551602
-0.5611840515519098 0.8006947396058515 0.2096673418806577
-0.585360397778414 0.7679395459774707 0.2600424166104682
-0.6102648821157183 0.7309102744976022 0.3055273216753741
-0.6358299535377708 0.6892087392603722 0.347435726302411
-0.6618252634405932 0.6422685793248589 0.38662435604061
-0.6878626069383429 0.5894609829804563 0.4235336864048719
-0.7133946482492333 0.5301918078273021 0.4582190772569047
-0.7377157921085967 0.4640067060703113 0.4903806549970792
-0.7599785982736362 0.3907010664116745 0.5194085163633907
-0.779234042046329 0.3104297089772637 0.5444517457961089
-0.7945026062836673 0.2237935771711285 0.5645193029697119
-0.8048718547070303 0.1318854949277933 0.5786082558416492
-0.8096095117603586 0.03626636224333838 0.5858474113937756
-0.80826982977387 -0.06113590108708328 0.5856298181236923
-0.8007693065797167 -0.1582043676002502 0.5777022552423038
-0.787410852532224 -0.2528509732550485 0.5621837196490577
-0.7688494970454566 -0.3432321837545649 0.5395017320899166
-0.7460082912559676 -0.4279089207112208 0.5102603109718694
-0.7199641067558642 -0.5059277535768697 0.4750671459319115
-0.6918257365654774 -0.5768140946101378 0.4343531402956824
-0.6626194127051874 -0.6404959896760447 0.3882014955086289
-0.6331886347882907 -0.6971692769621449 0.3361951100700603
-0.6041035621821386 -0.747111545525488 0.277278244190501
-0.5755699521590283 -0.7904229157174592 0.2096445670184749
-0.5473226105886069 -0.82665437611105 0.1306923960868509
-0.5185031888320139 -0.8542673978759221 0.037170634879344
-0.4875565838541824 -0.8699305182058094 -0.07422581110779955
-0.4520914977060037 -0.868003651454168 -0.2053848552453978
-0.4070686765006275 -0.8417611338178951 -0.3545888974652738
-0.3277472853576922 -0.7904832684359699 -0.517414649254782
0 0 0
0 0 0
-0.3139821439923127 0.7601458191467568 -0.5688528341211774
-0.3432157641086176 0.8430497122362117 -0.4140895096060482
-0.3715549021132074 0.8881608789261977 -0.2704019376052769
-0.3965928755107589 0.9064925232387732 -0.1448633715136764
-0.4193252719601558 0.9070125663474283 -0.03865903236492579
-0.4408539026959731 0.8961776145561325 0.05013501417381538
-0.4620478075259349 0.8780434142031107 0.1247059995951297
-0.4835214940178275 0.8548241978557023 0.1883681384500107
-0.5056716112809233 0.8274923626280156 0.2440340372506649
-0.5287188843132037 0.7962358207467304 0.29404907605769
-0.5527346221886452 0.760760550992035 0.3401879208441566
-0.5776512509480777 0.7204792146144579 0.3837039660814759
-0.6032582832224724 0.6746365107512093 0.4253763299537342
-0.6291900856006595 0.6224074136310973 0.4655414564127262
-0.654909660681489 0.5629985669949479 0.5041090654885028
-0.6796993416933551 0.4957642744415449 0.5405798637473167
-0.7026681181467269 0.4203435620460858 0.5740808354113079
-0.7227895153956335 0.3368020757047796 0.6034398712673006
-0.7389764046543801 0.2457580948513779 0.6273091998202371
-0.7501934745937789 0.1484512965114321 0.6443383918726149
-0.7555919715420223 0.04672371350301872 0.6533740637167401
-0.7546412043846317 -0.0571140949780557 0.6536471776117063
-0.7472228088104985 -0.160515261009719 0.6448976081335164
-0.733661470531388 -0.2609875114714925 0.627396497849357
-0.7146824901163025 -0.356368039783452 0.6018560945459143
-0.6913088297367386 -0.4450256117060988 0.5692488971035718
-0.6647252307875078 -0.5259495672969997 0.5305821521824803
-0.6361390707364194 -0.5987318597297194 0.4866695417089464
-0.6066605996451092 -0.6634601552304177 0.4379309754514581
-0.5772107261479718 -0.7205543063880712 0.3842255446548757
-0.548453699923558 -0.7705563640666342 0.3247174600118817
-0.5207409863115355 -0.8138690341996543 0.2577712558572243
-0.4940515518436842 -0.8504035875124234 0.1809055070108341
-0.4679197499651445 -0.8790856020789586 0.09088240649339627
-0.4413763294695578 -0.8971813372920492 -0.01589288516380366
-0.413008016064064 -0.89952301151281 -0.1424174512682694
-0.3815566428941299 -0.8778727990662378 -0.2894026207949225
-0.3499448123588659 -0.8202928007840968 -0.4523918094803437
0 0 0
0 0 0
-0.2999408004919252 0.8020595261915145 -0.5164649384476215
-0.3131668024996281 0.8778993166167511 -0.3622421064647227
-0.3314657567268749 0.9169171777522784 -0.2222461276609247
-0.3502197556388204 0.9311348445246462 -0.1016564020234203
-0.3686515882999995 0.9295676020326067 -0.0002823034468704712
-0.3870195962854593 0.9181886564601958 0.08453060533830296
-0.4057324421965112 0.9005432379317597 0.1562147943206277
-0.4251297725802622 0.8784625287814813 0.2181014947053288
-0.4454507202987242 0.8526530169358117 0.2730503405887004
-0.4668388480311393 0.8231086319926522 0.3233475991995962
-0.4893445004946526 0.7893718652736452 0.3707209437704382
-0.5129153486443587 0.7506957132802085 0.4163817853698145
-0.5373777517941798 0.7061509663836648 0.4610596106275726
-0.5624100899877954 0.654718984608935 0.50501281357265
-0.5875150161689242 0.5953943698144927 0.5480252276759084
-0.6119972556302118 0.527318497815229 0.5894018671186739
-0.634961288800558 0.4499438264811497 0.6279926072305586
-0.6553415014054483 0.363219980591927 0.6622678931025209
-0.671978209659656 0.2677625482561969 0.6904697701521409
-0.6837396844076157 0.1649593339420664 0.710836452435835
-0.6896772471388922 0.05695489896244896 0.7218735583626096
-0.6891801844033677 -0.05351241374840367 0.7226113028458377
-0.6820899968767528 -0.1634144210995118 0.7127755348897589
-0.6687384034333057 -0.2698061514963961 0.6928156958298336
-0.6498980224521118 -0.3701790873819654 0.6637770737814682
-0.6266620603587881 -0.4627037017624526 0.6270565735898166
-0.6002883206352697 -0.5463271306508886 0.5841066669912728
-0.572045758120066 -0.6207280363327539 0.5361532948022626
-0.543090029201408 -0.6861727954185849 0.4839629273089601
-0.514378901552441 -0.7433112970896815 0.42767120695291
-0.4866214332594881 -0.7929442832962501 0.3666591663660914
-0.4602467590381037 -0.8357580229191547 0.2994686092417477
-0.4353745526583113 -0.8719983041042537 0.2237587015891894
-0.4117835275823211 -0.901022273440849 0.1363568449889592
-0.3889196080593293 -0.9206616006101549 0.03352246454133074
-0.3661327871990432 -0.9263591950599651 -0.08834830991995764
-0.3437518445262545 -0.9101460221300611 -0.231233405427554
-0.326675694550398 -0.8597207263117886 -0.3926362990605237
0 0 0
0 0 0
-0.2543716935949569 0.8444612805014837 -0.4713599338418861
-0.2672969248209038 0.909589692401938 -0.318117816944344
-0.2828772375725709 0.94165922584498 -0.1823687770544718
-0.2984214110904013 0.9521124968809507 -0.06653160666881895
-0.313839528280517 0.9489813225117331 0.03064637029966362
-0.3294864240354272 0.9374670613838954 0.1122239065288216
-0.3456981364940591 0.9205798706012636 0.1817291948705403
-0.3627245442588441 0.8998015681823835 0.2424624566582149
-0.3807408067709604 0.8756119794369699 0.2972206243279037
-0.3998610480235398 0.8478447967594699 0.3482389163798452
-0.420137547469084 0.8159082347438389 0.3972130331243617
-0.4415470436210708 0.7789174033799052 0.4453357014448733
-0.4639650913175505 0.7357849520521499 0.4933121713198567
-0.4871331549528019 0.685303559143744 0.5413504605804319
-0.5106212372337946 0.6262523718670876 0.589129797936478
-0.5337961421257483 0.5575440580052908 0.6357722092342979
-0.5558066660889915 0.4784232736757911 0.6798456597907929
-0.5756042112628562 0.3886971328036149 0.7194402900357426
-0.5920123749794524 0.2889602066718218 0.7523452311481515
-0.6038526544443337 0.1807409231864178 0.7763341357986604
-0.610111564615348 0.06650124610371763 0.7895197673201502
-0.6101151668704019 -0.05056384600296628 0.7906976543737114
-0.6036606819712407 -0.1669054940937535 0.7795744589731861
-0.5910634087230708 -0.2790969981647207 0.756801765645473
-0.5731038754656108 -0.384269459069825 0.72380172060619
-0.5508955177245947 -0.4804032579632044 0.6824418204428043
-0.5257149233441022 -0.5664224931232624 0.6346568983768569
-0.4988386657587603 -0.6421185972545026 0.5821028196151682
-0.4714174377896776 -0.7079555612003048 0.525894022321395
-0.4443969781701919 -0.7648239922352226 0.4664285440392533
-0.4184787387725092 -0.8137795775405194 0.403284445984894
-0.3941010717946958 -0.8557767499558429 0.3351574248696962
-0.3714208675366863 -0.8913657637174343 0.2598338207984665
-0.3502818224511822 -0.9202981473575328 0.1742238928234901
-0.3301875860423461 -0.9409663169553837 0.0745556730165315
-0.3103936188408671 -0.9496311681200069 -0.04308649345097679
-0.2905604063512645 -0.939458744430451 -0.1816367742890958
-0.2736722528089357 -0.899207527969639 -0.3413639109296884
0 0 0
-0.08630676190708077 0.7964821034357427 -0.5984708863058323
-0.1756227677854131 0.882627364727729 -0.4360339189434404
-0.2092624882406189 0.9355326630946484 -0.2845836384938163
-0.2280791991558368 0.9617006272458829 -0.1520255980659408
-0.2424934261330977 0.9693417375625645 -0.03966779678051016
-0.2556771902554946 0.9652275580411064 0.0544512220345637
-0.2688001523385201 0.9538692831969297 0.1337156261480432
-0.2823801428851929 0.9378472014291294 0.2017525258223243
-0.2966890157341356 0.9183712431818261 0.2618585260009235
-0.3118938110689486 0.8957453188530249 0.3168005277296408