# OOMMF: rectangular mesh v1.0
# Segment count: 1
# Begin: Segment
# Begin: Header
# Title: 
# Desc: time = 4.4e-10
# Desc: stepsize = 9.031511125848467e-14
# Desc: step = 2814
# meshunit: m
# valueunit: (none)
# valuemultiplier: 384000.0000000001
# xmin: 0
# ymin: 0
# zmin: 0
# xmax: 9.357999999999999e-08
# ymax: 9.357999999999999e-08
# zmax: 2.3395e-08
# ValueRangeMaxMag: 1
# ValueRangeMinMag: 0
# meshtype: rectangular
# xbase: 1.16975e-09
# ybase: 1.16975e-09
# zbase: 1.16975e-09
# xstepsize: 2.3395e-09
# ystepsize: 2.3395e-09
# zstepsize: 2.3395e-09
# xnodes: 40
# ynodes: 40
# znodes: 10
# End: Header
# Begin: Data Text
0 0 0
0 0 0
0 0 0
0 0 0
0 0 0
0 0 0
0 0 0
0 0 0
0 0 0
0 0 0
0 0 0
0 0 0
0 0 0
0 0 0
0 0 0
0 0 0
-0.813840004317161 0.01273113850917694 -0.5809495378131416
-0.8235533955629175 0.03596633270685767 -0.5660973658023921
-0.8340729101111192 0.02062762592314892 -0.5512684297758605
-0.8396042901493783 -0.01075664674991766 -0.5430920092520747
-0.838315912700888 -0.04675243155681692 -0.5431764360279275
-0.8302851478115989 -0.07851138872896553 -0.5517812385024703
-0.8175518075815521 -0.09448624328857921 -0.5680505186595179
-0.8063553870429282 -0.07152549395228971 -0.5870903622967504
0 0 0
0 0 0
0 0 0
0 0 0
0 0 0
0 0 0
0 0 0
0 0 0
0 0 0
0 0 0
0 0 0
0 0 0
0 0 0
0 0 0
0 0 0
0 0 0
0 0 0
0 0 0
0 0 0
0 0 0
0 0 0
0 0 0
0 0 0
0 0 0
0 0 0
0 0 0
0 0 0
0 0 0
-0.7635883748880711 0.2132189486329774 -0.6094837763875603
-0.7917865763986006 0.2474592638945836 -0.5584245071159873
-0.8293772724986408 0.2338515602473537 -0.5073921438420119
-0.866719957170855 0.188492950920287 -0.4618083187807609
-0.8993478138319694 0.1086102441892031 -0.4235296029946648
-0.9126768869626963 0.07109158940352296 -0.4024510975511955
-0.9210232263687281 0.03538085688804764 -0.3878974238831771
-0.9248808942858922 -0.004320302681249672 -0.3802323846934533
-0.9237094789236494 -0.04588896520142196 -0.380335380183519
-0.9175328242250387 -0.08587219797918645 -0.3882775838029371
-0.9069006161193121 -0.1221036496551195 -0.4032641457200372
-0.8911034651078811 -0.160172346707016 -0.4245932569213675
-0.8547279092816013 -0.2397701037125086 -0.4603808189540424
-0.8138575464602802 -0.2864628055195143 -0.5055442167837956
-0.7732245340466142 -0.301910082553234 -0.5576505375242591
-0.7429722604811851 -0.2693567641779893 -0.612730898312661
0 0 0
0 0 0
0 0 0
0 0 0
0 0 0
0 0 0
0 0 0
0 0 0
0 0 0
0 0 0
0 0 0
0 0 0
0 0 0
0 0 0
0 0 0
0 0 0
0 0 0
0 0 0
0 0 0
0 0 0
0 0 0
0 0 0
-0.7419735417340152 0.3023566227843039 -0.5983775864996542
-0.7802286697587535 0.3351863314209539 -0.5281035373059415
-0.836319762802968 0.3009414151694855 -0.4582614090025185
-0.8709808464496771 0.2831775580731285 -0.4015007294159538
-0.9017310910673253 0.2531254101396506 -0.3504405315373268
-0.9290640145607978 0.2070772501268049 -0.3065274365013574
-0.9506121091525978 0.1484723805864428 -0.2725666343033268
-0.9630429126395103 0.0978223583621044 -0.2509564396848264
-0.9701420219796455 0.05013871541915924 -0.2372984753540587
-0.9730731560628363 0.002279503822494785 -0.2304852203769984
-0.9719741863694711 -0.04600705888934394 -0.2305418217238611
-0.9668349706260102 -0.09402879168208468 -0.2374631043118241
-0.9574638544523463 -0.1420340499725512 -0.251175826993065
-0.9425400697611189 -0.193125854796235 -0.2726180865311907
-0.9180414425253838 -0.2522282802758017 -0.3059097978735291
-0.8877480927761444 -0.2993158603191072 -0.3497332405330525
-0.8541872145241904 -0.3307858719347244 -0.4011793981148435
-0.8168272944073984 -0.3501795177450859 -0.4584402648796324
-0.7576276511616107 -0.3854245089447313 -0.526733604490973
-0.7169642395485755 -0.3547897293029328 -0.6000721016591956
0 0 0
0 0 0
0 0 0
0 0 0
0 0 0
0 0 0
0 0 0
0 0 0
0 0 0
0 0 0
0 0 0
0 0 0
0 0 0
0 0 0
0 0 0
0 0 0
0 0 0
0 0 0
0 0 0
-0.7512907423551842 0.3819476041646672 -0.5382176586886258
-0.8033084930430171 0.3852772562225041 -0.4541551506287417
-0.8439544922606637 0.3789041843603562 -0.3797004530774993
-0.8827920419120941 0.3506012066843078 -0.3126611658140195
-0.9129112567259386 0.3172799769983713 -0.256761472068883
-0.9379769295812634 0.2765122194419966 -0.2091417511463609
-0.9589734825569006 0.227103984755415 -0.1696868877105756
-0.9752659663650971 0.1713718447640508 -0.1395993756150739
-0.9860666235206731 0.115935851672306 -0.1192958183489913
-0.9923863329195226 0.0615076704905495 -0.1067060106337387
-0.9948979340231519 0.007392244836228382 -0.1006153844734739
-0.9938252241901212 -0.04672767561236789 -0.1006377071247152
-0.9891532143935597 -0.1008918336870853 -0.1067555916575103
-0.9806163392425937 -0.1554211156367381 -0.1193141736118775
-0.9674799868152584 -0.2110155206050095 -0.1394809133026581
-0.9487018158385941 -0.2670016136604468 -0.1693369508620932
-0.9252034608014775 -0.3169148184766843 -0.2087188394727666
-0.8976452069901257 -0.3584890811203186 -0.2563565116886309
-0.8649391516625586 -0.3929858646694938 -0.3121576109775686
-0.8232329918797509 -0.422858054364608 -0.378785568547287
-0.7797115782183454 -0.431396009092199 -0.4538142110286763
-0.7250454491982945 -0.4292876751679557 -0.5385361534249435
0 0 0
0 0 0
0 0 0
0 0 0
0 0 0
0 0 0
0 0 0
0 0 0
0 0 0
0 0 0
0 0 0
0 0 0
0 0 0
0 0 0
0 0 0
0 0 0
-0.6499779634968174 0.4675621343317871 -0.5990945647455276
-0.702322706413995 0.5076995779239054 -0.4989829201798487
-0.783971861787274 0.4754716362093112 -0.399142635014396
-0.8346005941870906 0.4516387758636116 -0.3153795559622931
-0.8720474919119507 0.4244465832286053 -0.2436765680890104
-0.903380685955136 0.3883229127498889 -0.1819578293909585
-0.9290542236571423 0.3461860288606791 -0.1304357425190552
-0.9503989031158122 0.298432097209408 -0.08763679770196306
-0.9680279175752227 0.2451890664413288 -0.05295538209291641
-0.9818396572016893 0.1878486809191671 -0.02652848700920421
-0.9916002440376827 0.1290835565671067 -0.008148094770827558
-0.9975338223503039 0.07010867690190689 0.003323656157882598
-0.9998987182637303 0.01115891453046776 0.008833563326893978
-0.9988194081752945 -0.04776877381412793 0.008828029261884422
-0.9942877266817836 -0.1066812622245025 0.003320370484886123
-0.9861625476800654 -0.1655827677802245 -0.008110275420857221
-0.9741746316490154 -0.2242477673999616 -0.02639556530247503
-0.958113288017976 -0.2815012750479342 -0.05268737486124653
-0.9382563407431036 -0.3347591037839263 -0.08724323176695552
-0.9146881236610803 -0.3827234441266944 -0.1298784114053317
-0.8867022526996764 -0.4253914468176909 -0.1811111041092456
-0.8528315650610397 -0.4625138829860029 -0.2424030315007357
-0.8125370099196521 -0.4912753818549996 -0.3137389148544611
-0.7585388986105251 -0.516951953034732 -0.3967107479616696
-0.6727589889819701 -0.5507836304056712 -0.4939966955568692
-0.6169027718816137 -0.513724723026588 -0.5962532004073742
0 0 0
0 0 0
0 0 0
0 0 0
0 0 0
0 0 0
0 0 0
0 0 0
0 0 0
0 0 0
0 0 0
0 0 0
0 0 0
-0.6335598611747193 0.5121469459879987 -0.5799201738372581
-0.6977517548031081 0.5398488526787891 -0.4708563527558884
-0.7503391752629873 0.5490165024632291 -0.3682010348827157
-0.8033654514454511 0.5291505801883883 -0.2731366231579678
-0.8448749112656375 0.4989642815004908 -0.192927525513026
-0.8777774744580955 0.4622308692473956 -0.1258941176098543
-0.9051734929270309 0.4192724588849928 -0.06979651082117022
-0.9282677623163875 0.3711780150671755 -0.02336327406246536
-0.9477986385066522 0.3185294397726992 0.01472198502329858
-0.9640709761275813 0.2617597304039491 0.04526584283169514
-0.9770273666409031 0.2017662307249211 0.06861423302638842
-0.9864943237943944 0.1399132128900152 0.0851659672652945
-0.9924177217386809 0.07720393827681353 0.09563795006980923
-0.9948167533302987 0.01416293021310497 0.100692793690221
-0.9937130690469566 -0.04893806704885362 0.1006945976644213
-0.9891060888045505 -0.1118909490933079 0.0956533355443645
-0.980976113688419 -0.1744216537515876 0.08522294922922222
-0.9693152177777615 -0.2360102282019479 0.06875449635125472
-0.9542007821129446 -0.2956811882558772 0.04553572582749452
-0.9358276589159362 -0.3521312352239053 0.01517188147871209
-0.9142355712534659 -0.4045494569151885 -0.02265076520725708
-0.8890521902619175 -0.4526218518464591 -0.06869979782771064
-0.8594296698327132 -0.4959158854958327 -0.124290293764707
-0.8240209403209589 -0.5334897459914281 -0.1907306499610475
-0.7795195111200802 -0.5651089611278792 -0.2701873310058778
-0.7228706379986685 -0.5871031576377154 -0.3643733291710874
-0.6664448705324819 -0.5809534181724413 -0.4672733252120211
-0.5988437747337616 -0.5557243248480421 -0.5766772132092673
0 0 0
0 0 0
0 0 0
0 0 0
0 0 0
0 0 0
0 0 0
0 0 0
0 0 0
0 0 0
0 0 0
-0.5955453281318194 0.5561303865242324 -0.5796936736973854
-0.6652043185221833 0.5877986003642002 -0.4604302553365974
-0.7197406965017619 0.5996980407520225 -0.3497650493078798
-0.7648755422244023 0.5936615326405494 -0.2500627712591374
-0.8053777318987514 0.5701783615778884 -0.1620596956370617
-0.8398945306032507 0.5355915337231761 -0.08785719359733965
-0.8692339959585997 0.4937014226343042 -0.02629002774263256
-0.8946046047484145 0.4461785635441264 0.02464326676056215
-0.9166958581121543 0.3939998512586521 0.0665794332221344
-0.9358248527338643 0.3377376737708069 0.1008221638407175
-0.9520267729478373 0.2778518242509092 0.1282317720027614
-0.9651340638234595 0.2149936476578307 0.1493116549851155
-0.9749028581288151 0.1500393631889906 0.1644767664629536
-0.9811352371404531 0.08381134184729644 0.1742105204030503
-0.9837119265111683 0.01694006684059416 0.1789521717530164
-0.9825804863359013 -0.05009411969622331 0.1789585623650446
-0.9777447545719917 -0.116859607659478 0.1742384200015244
-0.9692680314382204 -0.1828710891246475 0.1645528729443568
-0.95728858092418 -0.247496529427901 0.1494792318461439
-0.9420293979793247 -0.3099282783365102 0.1285498954883931
-0.9237537488680566 -0.3693290400727838 0.1013660278945902
-0.9026245623335061 -0.4251115890214808 0.06744654440278994
-0.8785695588551894 -0.4769089906490973 0.02594888997734526
-0.8511986541930516 -0.5242746771695064 -0.02443182307456909
-0.8197074154794481 -0.5663872487234379 -0.08535360268610362
-0.7827210965687085 -0.6017609657181811 -0.1588440276629881
-0.7392570093773899 -0.6268147157157751 -0.2461755191901686
-0.6906064870526826 -0.6353555271379095 -0.3455228417573306
-0.6320346187957628 -0.6265961113967135 -0.4559710010803444
-0.55855490701679 -0.597719320311204 -0.5751069726356801
0 0 0
0 0 0
0 0 0
0 0 0
0 0 0
0 0 0
0 0 0
0 0 0
0 0 0
-0.5570711633744454 0.5778638317842324 -0.5964437197693391
-0.6231164324298717 0.6258105598641002 -0.4691343675307214
-0.6770768388337367 0.6479473352621036 -0.3488999928943141
-0.7216357361265556 0.6489054709987674 -0.2411712131514694
-0.7596584595510047 0.6334464311592936 -0.1471891425484507
-0.7935589747948787 0.6048479081882866 -0.06650685290069323
-0.8239283142618944 0.5666925920897137 0.001280245364709586
-0.8512326982299334 0.5216185649199472 0.05759310891974163
-0.8758789479104055 0.4711425114696742 0.1042151740074751
-0.8980461697869581 0.4161132072141829 0.1426985483910044
-0.9176965538267909 0.3570406296689474 0.1742269320743286
-0.9346234131742823 0.2943501786582552 0.1995922039316853
-0.9485087409357373 0.228576287384977 0.2192807543169311
-0.959000278093239 0.1604108738216455 0.2336382207107092
-0.9657908439980284 0.09060294479473931 0.2429797358713204
-0.9686649356930956 0.01986511491544012 0.2475754825666039
-0.9675149708740859 -0.05114414904727731 0.2475864639933812
-0.9623451012850736 -0.1217863310136481 0.2430226236605456
-0.9532744351799769 -0.1913957875270109 0.2337423875748905
-0.9405368898322464 -0.2592525794995015 0.2194959199792531
-0.9244639476467902 -0.3246099428122148 0.1999869858984895
-0.9054301804005734 -0.3867951311216418 0.1748877210108717
-0.8837643132512559 -0.4453127339310308 0.1437261549698109
-0.859664182744946 -0.4998010481712643 0.1057185184930662
-0.8331318894868435 -0.5498453998953694 0.0596765526315213
-0.8039131329989546 -0.5947330749981995 0.004030396381296707
-0.771471556366137 -0.6331334011560162 -0.06303756069697283
-0.7351547795050452 -0.6626414347460559 -0.1430167092635552
-0.694153141359398 -0.6798975975747604 -0.2364120833480137
-0.6458449883644516 -0.6817179539664131 -0.3437221003141463
-0.5874577443467421 -0.663100432126437 -0.4638870719483025
-0.5173202255872077 -0.6182809021793241 -0.5916996790591668
0 0 0
0 0 0
0 0 0
0 0 0
0 0 0
0 0 0
0 0 0
0 0 0
-0.5955107640907081 0.6354914500727272 -0.4914443475476776
-0.6318209047043559 0.6839351848976081 -0.3647396430848217
-0.6719080209245191 0.6978271633650182 -0.2481468546792961
-0.7084410617774208 0.6904509346593606 -0.1462489959476485
-0.7413266212341389 0.6685398891772701 -0.059069935063601
-0.7716188312153041 0.6359131566736026 0.01479312283940251
-0.7999155855951799 0.5951702085986342 0.07686012437264292
-0.8264622981492381 0.5480635125869188 0.1287884152739188
-0.8512810283125078 0.4956546840373572 0.1721831728916217
-0.8742119560095208 0.4385581357834588 0.2083751844825686
-0.8949492113924855 0.3771717148292577 0.2383430438689673
-0.9130807836194579 0.3118659858043215 0.2627224571352341
-0.9281343443330191 0.2431203834111873 0.2818849375889272
-0.9396358931335616 0.1715724232401674 0.2960528532518988
-0.9471729378619371 0.09798073052242533 0.3053902457975335
-0.9504455159101345 0.02316280517475573 0.3100271048517436
-0.9492966512669159 -0.05204489285538856 0.310043863059874
-0.9437272352976044 -0.1267992948550365 0.3054518688464765
-0.9338989051186442 -0.2002546205130697 0.2961940613539769
-0.9201242785002579 -0.2715801083866266 0.2821622881305855
-0.9028365022269049 -0.3400079261193745 0.2632125764903516
-0.882535010114592 -0.404901563924462 0.2391373652392308
-0.8597157341346214 -0.4657975715761176 0.2095745184777005
-0.8348059497810199 -0.5223613936291511 0.1738896220480678
-0.8081080740341804 -0.574260216501001 0.1310974615505216
-0.7797448851123107 -0.6209844834844714 0.07985102011065759
-0.7496026300367674 -0.6616290357675617 0.01851799317548029
-0.7172709995789917 -0.6946514515376089 -0.05460470711986935
-0.6819081306518588 -0.7176974474975671 -0.1411087354006252
-0.64217453108524 -0.7271797146217999 -0.2425315119072353
-0.5980465202653826 -0.7164420332312049 -0.3592369310329937
-0.5576057873611583 -0.6716276811877033 -0.4878442822907434
0 0 0
0 0 0
0 0 0
0 0 0
0 0 0
0 0 0
0 0 0
-0.4781870796878732 0.6935760186100457 -0.5387851364213946
-0.5645678137487985 0.7244280268493968 -0.3955593730326595
-0.6129928333575957 0.7426168902278566 -0.2697405060433715
-0.6506259160188562 0.7424909168563942 -0.1593523008631329
-0.6833905434704282 0.7271943136569461 -0.06454297235327498
-0.7134797918480348 0.7004954044643055 0.01589889772509918
-0.7420427672045383 0.6650797090855188 0.08391371879586892
-0.769597479691475 0.6226707275264909 0.1414244827961539
-0.7962395279223671 0.5743243750094432 0.1901423846594383
-0.8217898923948272 0.5206470092333658 0.2314909599402301
-0.8458835260870913 0.4619850806073822 0.2665536448647044
-0.8680256200459749 0.3985920523486353 0.2960673888632496
-0.8876355885420336 0.330768366740913 0.3204611513384826
-0.9040936530514644 0.2589630676960985 0.3399305753848622
-0.9167964644289665 0.1838193555134117 0.3545344656717876
-0.9252198811233713 0.1061608990471203 0.3642774150116382
-0.9289761574312189 0.02694373287557915 0.3691576007385682
-0.927856717623439 -0.0527979656445033 0.3691805606811644
-0.921855412377261 -0.1320007242681406 0.3643602715217942
-0.9111726436706207 -0.2096184331304212 0.3547175297588754
-0.8961976857782051 -0.2846756574478404 0.3402785301226462
-0.877469375420563 -0.3563281710492203 0.3210572062978246
-0.855617247283708 -0.4239174559178587 0.2970069304221362
-0.8312953124178516 -0.4869893283840623 0.2679356221037913
-0.8051188192937578 -0.5452549399677011 0.2334110906958868
-0.7776073442263166 -0.5984971631758231 0.1926861797737097
-0.7491234412033247 -0.6464417082875276 0.1446623227588689
-0.719794550705695 -0.6886003263555165 0.08789422800993382
-0.6893985412681106 -0.7240881395079288 0.02064019189219265
-0.6571960638265586 -0.7514014368818277 -0.05906957205534829
-0.6217248031949876 -0.7680960513636022 -0.1532537926832345
-0.5804677485265111 -0.7705583363994241 -0.2632433154439338
-0.5274232866809344 -0.7553875104328772 -0.3888629395412986
-0.4362191775824947 -0.7268490331468992 -0.5304746102526203
0 0 0
0 0 0
0 0 0
0 0 0
0 0 0
-0.4067385564694966 0.6901205948656221 -0.5985794109585038
-0.4821448910476161 0.7506475701639254 -0.451735021272069
-0.5417699416134486 0.7806992387889486 -0.3114386439068145
-0.5848286217700095 0.7888775796075105 -0.1888058461785185
-0.6193437156100544 0.7806077714174846 -0.08405277590275945
-0.6498029717826147 0.7600890142747997 0.00455941237938635
-0.6784309928616036 0.7303596322479761 0.07941155776975772
-0.7063035897366136 0.6933283678513946 0.1429370961566461
-0.7338362260195207 0.6500595142830632 0.1972486280598526
-0.7610225359214514 0.6010787932665506 0.244026605321858
-0.7875727428540401 0.5466051046884732 0.284520709688885
-0.8130001766257504 0.4867240369628532 0.3195785109313223
-0.8366784361130103 0.4215279522221341 0.3496904059863536
-0.8578891907693887 0.3512312950010583 0.3750502816595694
-0.8758729361172285 0.2762571071257475 0.395636968115845
-0.8898913553131715 0.1972816988598889 0.4113068283335958
-0.8992978130879986 0.115230777281321 0.4218830541065677
-0.9036073767031428 0.03123449342159773 0.4272213889640359
-0.9025525630366633 -0.05344308246026738 0.4272501701498714
-0.8961169435540056 -0.1374865906086048 0.421985616909212
-0.8845398423748911 -0.2196170031506131 0.4115308483923724
-0.8682923511082082 -0.2986778301856322 0.396055484449568
-0.8480261121224705 -0.3737116602359479 0.3757543188868729
-0.824505093606882 -0.4440110368650019 0.3507784910144462
-0.798531049908033 -0.509128779470713 0.3211480161038459
-0.7708746649441053 -0.5688395574158142 0.2866597440630497
-0.7422120818624566 -0.6230618808910485 0.246809882536957
-0.7130607286777367 -0.6717515284412086 0.2007343549432293
-0.6836985798166847 -0.7147715920658237 0.1471659713803961
-0.654051025309483 -0.7517268387256618 0.08440388753568283
-0.6235230754877372 -0.7817369684565522 0.01030953358171704
-0.5907421550350646 -0.8031211597775363 -0.07758936126887561
-0.5530878138271537 -0.8130628140448841 -0.1817215744299878
-0.5056961448500428 -0.8074425705726583 -0.3038221590187614
-0.4405277714416307 -0.780559920017617 -0.443465324293525
-0.359674578098949 -0.7230890882910519 -0.5897256720406172
0 0 0
0 0 0
0 0 0
0 0 0
-0.4381360088508527 0.7328059544614987 -0.5206075977682392
-0.4754658696697809 0.7962914687805551 -0.3739680514782838
-0.5157947913331487 0.8229807485090237 -0.2380302939063008
-0.5507780939435094 0.8259364633310684 -0.1203014953029305
-0.5814844655293793 0.8132891322260279 -0.02089506523190644
-0.6099567992538699 0.7899548293055376 0.06264240337688812
-0.6376040186481103 0.7587469107961328 0.133282559853511
-0.6651723534262632 0.7211175124751176 0.1937402215314724
-0.6929199793489527 0.6776777863701186 0.246200568804262
-0.7207529561690876 0.6285608310122369 0.2922780489375254
-0.7483146958721834 0.5736675350399991 0.333062569471342
-0.7750448068325295 0.5128408794275557 0.3691880006038893
-0.8002245909159645 0.4460015105965045 0.4009030514214285
-0.823021299055039 0.3732605184185411 0.4281501216765882
-0.8425439162861786 0.2950074247238988 0.4506554875810584
-0.857914319076028 0.2119620153755277 0.4680332521971691
-0.8683528117274358 0.1251779273353831 0.4798894465114578
-0.8732649817985899 0.03599511543734147 0.4859142138577141
-0.8723158089910438 -0.05405118942572243 0.4859460858016709
-0.8654743160154698 -0.1433508597679966 0.4800049367676653
-0.8530211240487868 -0.2303501697845115 0.4682881177296625
-0.8355153882121696 -0.3136755605719348 0.4511337703614632
-0.8137298572885185 -0.3922300329708306 0.4289514198518379
-0.7885656184249547 -0.4652475764192093 0.402130523678718
-0.7609643734016359 -0.5322961674255454 0.3709366692004594
-0.7318279281342578 -0.5932336993749443 0.335412673476476
-0.7019502327611588 -0.6481272916868254 0.2952911859457626
-0.6719542954777105 -0.6971492896893527 0.2499205727319869
-0.6422248826234698 -0.7404498114314554 0.1981950475930007
-0.6128207940136916 -0.7779922303080667 0.1384874146076377
-0.583354030331419 -0.8093159017972853 0.06859917196392315
-0.5528222791245153 -0.8331780946234146 -0.01420529279079447
-0.5194257191452541 -0.8470190246647603 -0.1129411091958692
-0.4806601604214515 -0.8461635239788236 -0.2301588600757367
-0.4352090130005541 -0.8225695438188132 -0.366022486446929
-0.3923477645951998 -0.7627381815276914 -0.5140950282360061
0 0 0
0 0 0
0 0 0
-0.3250646328990816 0.724730916517382 -0.6075344295445816
-0.4045451783852416 0.7954083068977378 -0.4512968246767602
-0.4476265509984071 0.8405543012004031 -0.3051211850638563
-0.4814047724532621 0.8589782165565096 -0.1743727861239252
-0.5109598327983407 0.8573486958382052 -0.06223554459647341
-0.5383737122553811 0.8420928279968714 0.03214677259992092
-0.5650082057414105 0.817505040010146 0.1115851110268784
-0.5917186200771996 0.7859652658886985 0.1792419467380384
-0.6189423619859039 0.748541588789841 0.2378988070404937
-0.6467843699406576 0.7055022890571087 0.2897179644682844
-0.6750793281769474 0.6566753251823458 0.3362222746410792
-0.7034298573492462 0.6016930924786107 0.3783541439619033
-0.7312333508948464 0.5401690671026687 0.416551516003155
-0.7577071778154041 0.471841168389536 0.4508278435276733
-0.781925546570323 0.396696547191639 0.4808578678434333
-0.8028755721097894 0.3150760401613955 0.5060809269529849
-0.8195392968960871 0.2277429473434714 0.5258217290854151
-0.8309956572879353 0.1358976829255626 0.5394238012398554
-0.8365305768234294 0.04112591799283723 0.5463746451920205
-0.835732015513221 -0.0547185887834582 0.5464044969505244
-0.8285505446446045 -0.1496790686166811 0.5395369972366785
-0.8153087132070778 -0.2418798338947858 0.5260854000289776
-0.7966592011718157 -0.329694194947955 0.5065923953297201
-0.773500342254862 -0.4118672505922773 0.4817287498387128
-0.7468710045704854 -0.487574541485841 0.4521667491387938
-0.7178435426632042 -0.5564157892416516 0.4184520495102514
-0.6874324692016026 -0.6183539207459716 0.3808871604366202
-0.6565218628362659 -0.6736191694557399 0.3394352046558486
-0.6258103309803373 -0.722591497644722 0.2936374587307243
-0.5957614564425593 -0.7656657038595389 0.2425372485840404
-0.5665499656492927 -0.8030832496583453 0.1846034413031789
-0.537988776431969 -0.8346987170171107 0.117669572291318
-0.5094309821915983 -0.8596297781864795 0.03894507463553098
-0.4796567629608864 -0.8757456947206398 -0.05476192038403394
-0.4468067910649301 -0.8790309615139477 -0.1663377893267915
-0.4083266438289855 -0.8632465669495873 -0.2967738475491194
-0.3591558071203746 -0.821487709644625 -0.4429052371721739
-0.2736038705023524 -0.7536195879842156 -0.5976608056854928
0 0 0
0 0 0
-0.3575658681977629 0.7570685432485152 -0.5468033199639064
-0.3862816311075976 0.8353645672372755 -0.3910914743040721
-0.414971688698895 0.8757548795002013 -0.2466817557298768
-0.4412880992379515 0.8892435091525165 -0.1204607608355245
-0.4661818329097044 0.8845881968610001 -0.013349930305146
-0.4906603808993474 0.8679662076797552 0.0767271330217065
-0.5154624036814563 0.8431432704461137 0.152996522484553
-0.5410452504111692 0.8120569313598509 0.2187088869660701
-0.5676191279052949 0.775429637300043 0.2766177926901229
-0.5951778919789468 0.7332433216503732 0.3288122688626807
-0.6235118332880452 0.6850695580273657 0.376713013332391
-0.6522086202316522 0.6302995794584805 0.4211251070999999
-0.6806499320554193 0.568321386889703 0.4623056036830149
-0.7080170221950765 0.4986750515402864 0.500035088022139
-0.7333144547401337 0.4211998380299895 0.5337046064188413
-0.7554248538219401 0.3361667564178223 0.5624279528149542
-0.7731978274974322 0.2443755081483895 0.5851886281964704
-0.7855712356021399 0.1471868990205353 0.6010106908793263
-0.7917053682044388 0.04646730574024564 0.6091333182920761
-0.7911049587775939 -0.05555972944285467 0.6091519191972867
-0.7836966271045757 -0.1565342321681825 0.601096190991449
-0.7698433355278288 -0.2542080366795597 0.5854225079640429
-0.7502901109885537 -0.3466679491131199 0.5629263561163985
-0.7260592699042476 -0.4324888378870193 0.5345945582301094
-0.6983197774062233 -0.5107968836458163 0.5014339758542938
-0.668261436503537 -0.5812459166140622 0.4643057579889647
-0.636990699030329 -0.6439304945365728 0.4237881163444027
-0.6054582200125622 -0.6992616974330521 0.3800702860291317
-0.57441192573747 -0.7478282482127812 0.3328721237135568
-0.5443683231562132 -0.7902478536866298 0.2813742320962728
-0.5155864185753802 -0.8269986662653781 0.2241514019048234
-0.4880340105271482 -0.8581986959727872 0.1591156899849741
-0.4613343517611361 -0.8832871992926679 0.0835125107444776
-0.4347000861171375 -0.9005557637951845 -0.005928863721179403
-0.4068947601981922 -0.9065209914067826 -0.1125004278308266
-0.3763523470151222 -0.8952704688935 -0.2384317479351715
-0.3418896633120572 -0.8581017376260383 -0.3831094699998176
-0.3070105516921156 -0.7834056410796841 -0.540388862463163
0 0 0
0 0 0
-0.3423593622690545 0.8007236594960625 -0.4915604623949728
-0.3557308973512363 0.8717753683050079 -0.3368430433990748
-0.3749973366786022 0.9060115219199771 -0.1962654315772427
-0.3956010370203744 0.91536289111914 -0.07490391892560003
-0.4167430627433384 0.9086041076196522 0.02763684627443306
-0.4386084795797078 0.8913998119885317 0.1141445435734296
-0.4615021564864722 0.8669724194436507 0.1880813214605791
-0.4856352954486842 0.836837756064261 0.2527072017964686
-0.5110876994015554 0.801404963547782 0.3107079785287192
-0.5377980346948775 0.7604039091261093 0.3640867600779499
-0.5655485947301826 0.7131763154919037 0.4141670315465821
-0.5939404775647953 0.6588855435219968 0.4616324833109398
-0.6223695319647844 0.5966907651949457 0.5065730908891677
-0.6500118923527551 0.5259164657967262 0.5485402544972162
-0.6758351069127951 0.4462275950402279 0.5866241059560922
-0.6986454577677959 0.3578004354746341 0.6195751550172008
-0.7171826215152536 0.2614585142906793 0.6459787401311428
-0.7302558728781069 0.1587314201599675 0.6644777621418442
-0.7369051962435027 0.05179843183570784 0.6740086454999562
-0.7365498916532289 -0.05669681405541508 0.6740027658560325
-0.7290878394892668 -0.1639342752072458 0.6644971600549905
-0.7149137786168788 -0.2672454035884493 0.6461255167570638
-0.6948549132475162 -0.3644018391235451 0.6199902815199314
-0.6700419899699436 -0.4538042386167638 0.5874567598475454
-0.6417550114204889 -0.5345453390748021 0.5499197994163261
-0.6112763341879015 -0.6063616741667217 0.5085929250034164
-0.5797781607926856 -0.6695084633286819 0.4643443784510771
-0.5482494715883645 -0.7245993842695523 0.4175862177075106
-0.5174606738393045 -0.7724389646950168 0.3682017067459936
-0.4879504866086478 -0.813860080567941 0.3154934101947734
-0.4600231567610756 -0.8495556936524169 0.2581352719531662
-0.4337388315404453 -0.8798775051919575 0.1941293431480804
-0.4088905974219101 -0.9045537617282956 0.1207930936897566
-0.3849726572703397 -0.9222696927065939 0.03485207410037547
-0.3612015795540386 -0.9300619481185002 -0.06721749466981855
-0.3368024287996322 -0.9225414856365807 -0.1883648885384928
-0.3122151514899709 -0.8910905789787812 -0.3293619274223336
-0.2929705082939744 -0.8233814872801929 -0.4860156455035445
0 0 0
0 0 0
-0.2962136355552896 0.845320877068507 -0.4446235451516792
-0.309540527806337 0.9053962292740928 -0.2905896241465408
-0.326468175292398 0.932567491019979 -0.1540662364502761
-0.3442750381058147 0.938130880557736 -0.03721759101830893
-0.3628212935957646 0.9298287885541484 0.06147465241398332
-0.3823920816206194 0.9125159046790259 0.1452274754365292
-0.4032393823572107 0.8888434985816968 0.2176125813118893
-0.4255124419673249 0.8599368202113834 0.2818649090889785
-0.44925778972429 0.8259269094184217 0.3406056057533093
-0.4744150043964475 0.7863194116340794 0.3957678441851403
-0.5007936857544291 0.7402452766582747 0.4486007297069501
-0.5280389057955878 0.6866478675654637 0.499689523538366
-0.5555920529409732 0.6244532823896725 0.5489768381467459
-0.5826625626981473 0.5527538122452577 0.5957915416304276
-0.6082233347366348 0.4710153492246858 0.638912291223603
-0.6310498101079393 0.3792939167921912 0.6766921470263797
-0.649812338941592 0.278420857394441 0.707266392759476
-0.6632249383510581 0.1700972804894015 0.7288344093958135
-0.670226993104892 0.05684052003488207 0.739976305698864
-0.6701601458256838 -0.05824228967585229 0.7399278442119958
-0.6628871850372706 -0.1718226089575627 0.7287369696703873
-0.6488185818593228 -0.2807723960386362 0.7072491141435102
-0.6288367723974058 -0.3825303429613137 0.6769304620082569
-0.6041482692247017 -0.4753276308437742 0.6395846403324906
-0.5761054567445698 -0.5582468446817352 0.5970451935255964
-0.5460449768735557 -0.6311378675919881 0.550908227677347
-0.51516685522348 -0.6944462884986504 0.5023419788048761
-0.4844657569096065 -0.7490083892513066 0.4519727460955629
-0.4547035106529996 -0.7958530202850922 0.3998283225372276
-0.426410734570717 -0.8360235278620102 0.3453093487063733
-0.3998965162699276 -0.8704125763275525 0.2871667168144795
-0.3752529804975573 -0.8995798436476969 0.223475514386888
-0.3523391210548939 -0.9235083135538743 0.1516230146486446
-0.3307448148917673 -0.9412405192329414 0.06836777293661882
-0.3097629478839206 -0.9503433500856737 -0.02990707384886451
-0.2885065877598598 -0.9461970683096439 -0.1465437024965479
-0.2666510099666833 -0.9212022385019158 -0.2833437394099374
-0.2476248813857899 -0.8637961738020336 -0.4387916228047659
0 0 0
-0.1301835967221847 0.806763635985576 -0.5763546363098051
-0.2174912025819574 0.886468564159535 -0.408498545354063
-0.2512668284453218 0.9337144479597591 -0.2550339400829443
-0.2715610802570074 0.9547516571809838 -0.1212594441675032
-0.2884821558453051 0.9574554176827947 -0.00756101241299231
-0.3050650340848324 0.9482136152092667 0.08846617947324302
-0.3223932303697565 0.931138043631745 0.1704246129917821
-0.3409125451466175 0.908409738492601 0.2420131888419705
-0.3608193072990112 0.8808395752384446 0.306481761568315