# OOMMF: rectangular mesh v1.0
# Segment count: 1
# Begin: Segment
# Begin: Header
# Title: 
# Desc: time = 2.9399999999999998e-09
# Desc: stepsize = 8.866590236625871e-14
# Desc: step = 18814
# meshunit: m
# valueunit: (none)
# valuemultiplier: 384000.0000000001
# xmin: 0
# ymin: 0
# zmin: 0
# xmax: 9.357999999999999e-08
# ymax: 9.357999999999999e-08
# zmax: 2.3395e-08
# ValueRangeMaxMag: 1
# ValueRangeMinMag: 0
# meshtype: rectangular
# xbase: 1.16975e-09
# ybase: 1.16975e-09
# zbase: 1.16975e-09
# xstepsize: 2.3395e-09
# ystepsize: 2.3395e-09
# zstepsize: 2.3395e-09
# xnodes: 40
# ynodes: 40
# znodes: 10
# End: Header
# Begin: Data Text
0 0 0
0 0 0
0 0 0
0 0 0
0 0 0
0 0 0
0 0 0
0 0 0
0 0 0
0 0 0
0 0 0
0 0 0
0 0 0
0 0 0
0 0 0
0 0 0
-0.8357604398414148 0.02955623649184664 -0.5482981999610453
-0.845594045472836 0.04824055196600154 -0.5316423228138427
-0.856128607864806 0.02909635703500894 -0.5159430286405271
-0.8616655019767617 -0.005764412943759414 -0.5074439222678188
-0.8604070672854148 -0.04513919317449587 -0.5076043063301043
-0.8524276964028272 -0.08036858368723809 -0.516631312602591
-0.8397315632045214 -0.100143486542753 -0.5336873465439776
-0.8284692150830086 -0.08176976079320464 -0.554032910466125
0 0 0
0 0 0
0 0 0
0 0 0
0 0 0
0 0 0
0 0 0
0 0 0
0 0 0
0 0 0
0 0 0
0 0 0
0 0 0
0 0 0
0 0 0
0 0 0
0 0 0
0 0 0
0 0 0
0 0 0
0 0 0
0 0 0
0 0 0
0 0 0
0 0 0
0 0 0
0 0 0
0 0 0
-0.7799542703248993 0.2403669415374031 -0.5778365423005953
-0.8079963993211577 0.2701449568565984 -0.5236062652117431
-0.8451837653052349 0.2529561483795449 -0.4708264965583933
-0.8820432744656872 0.2047927297776166 -0.4243343019366689
-0.9143560054990441 0.1229414596098684 -0.3857959210733393
-0.9276969401284474 0.08229560674019991 -0.3641508209349218
-0.936056618819549 0.04333166614867135 -0.3491709797117924
-0.9399405511235303 0.0004231543002080918 -0.3413379282969174
-0.9388243486918089 -0.04432776362889341 -0.3415316847308039
-0.9327250928986675 -0.08752431326304982 -0.3498047965151467
-0.9221668146469695 -0.1270237893120328 -0.3653400100080381
-0.906431283761327 -0.1682527173031968 -0.3873930187017863
-0.8704477332668593 -0.2498840575052181 -0.4241210929148829
-0.8300139055901569 -0.2993154156715546 -0.4706242646404222
-0.7896884675765727 -0.3181949537528824 -0.5245417958397257
-0.7595241292103287 -0.2899292453909187 -0.5822921344259629
0 0 0
0 0 0
0 0 0
0 0 0
0 0 0
0 0 0
0 0 0
0 0 0
0 0 0
0 0 0
0 0 0
0 0 0
0 0 0
0 0 0
0 0 0
0 0 0
0 0 0
0 0 0
0 0 0
0 0 0
0 0 0
0 0 0
-0.7526912456221461 0.3342128988462942 -0.5672368350244349
-0.7905951894586166 0.3627601882649194 -0.4933196653437742
-0.8461262233671649 0.3256612501611838 -0.4219184331999168
-0.8803541885253029 0.3045959344543685 -0.3635901806427463
-0.9106722992417009 0.2714689532612432 -0.3114170367996559
-0.9376561169124445 0.2227226530981039 -0.2668250854279204
-0.9590689340274394 0.1616844028288124 -0.2324756625226834
-0.9715724163066043 0.1082871306693659 -0.2105253837510845
-0.9787796811638785 0.05767871238318936 -0.1966303686579284
-0.9818103765719435 0.006826525561406616 -0.1897413581811236
-0.9807946318648879 -0.04447688297662002 -0.1899044417218886
-0.9757164505305747 -0.09551619061029529 -0.1971143462442902
-0.9663833842597354 -0.1464935088913974 -0.2112884437904399
-0.9515178202725633 -0.2003971908067261 -0.2333555305119673
-0.9272663195580735 -0.2619940742933585 -0.2674626658963644
-0.8973516360791687 -0.3117729208793876 -0.3123422594404637
-0.8641751066721411 -0.3462394438452286 -0.3651296105959355
-0.8271461285573681 -0.3688062197267916 -0.4240415714330266
-0.7683490251705664 -0.4067739403262757 -0.494140402103365
-0.7278826958055619 -0.380134964379829 -0.570687471391105
0 0 0
0 0 0
0 0 0
0 0 0
0 0 0
0 0 0
0 0 0
0 0 0
0 0 0
0 0 0
0 0 0
0 0 0
0 0 0
0 0 0
0 0 0
0 0 0
0 0 0
0 0 0
0 0 0
-0.7563816905782239 0.4148121794113098 -0.5057841377208925
-0.8078051103481826 0.4146520803301467 -0.4189445738677627
-0.8478154455294052 0.4049359832263204 -0.3423971667673503
-0.886110620069063 0.3737880202305283 -0.2740264310845984
-0.9158711521857499 0.3377112485028094 -0.2170970871030292
-0.9407041093628307 0.2943060088443993 -0.1687001831236795
-0.961605851691924 0.2423952108805231 -0.1286807978450375
-0.9779731993309367 0.1842015344194598 -0.09817441676897115
-0.9889771456782792 0.1261410753773843 -0.07754117892242739
-0.9955197864929998 0.06891675875596072 -0.06473665934773208
-0.9982116360057702 0.01188981312391837 -0.05858465743316572
-0.9972507963739233 -0.0451953660939735 -0.05872161454870634
-0.9926169219595348 -0.1023177749077746 -0.06513615875610344
-0.9840609783432637 -0.1597311246814458 -0.07816622486789604
-0.9709033281423654 -0.2180661939775242 -0.09896394518325681
-0.952197011583805 -0.2766324082717914 -0.1295969205830888
-0.9288738454146039 -0.3291289024219454 -0.1699045169947271
-0.9015534041860823 -0.3733604527609993 -0.2186399590984851
-0.8691405312264717 -0.4105600790281412 -0.2757447342883856
-0.8278445271839585 -0.443138652592874 -0.3439499576824215
-0.784767946969738 -0.4547597105074833 -0.4211091011935648
-0.730490980515565 -0.4558441428785628 -0.5085165137817216
0 0 0
0 0 0
0 0 0
0 0 0
0 0 0
0 0 0
0 0 0
0 0 0
0 0 0
0 0 0
0 0 0
0 0 0
0 0 0
0 0 0
0 0 0
0 0 0
-0.6510020457692293 0.504058757550176 -0.567557138393352
-0.7026241163823009 0.5398156748850566 -0.4635929121830718
-0.7830518768173483 0.5052006950418432 -0.3627699214957963
-0.8328568978984249 0.4787875964190376 -0.2776901603195414
-0.869712176657802 0.4490721469297556 -0.2047802154141056
-0.900676369337805 0.410604366567459 -0.1420779077555864
-0.926204707893068 0.3661913129973157 -0.08971488929948031
-0.9475781946865751 0.3161683874475325 -0.04618566588626015
-0.9653805617949324 0.2606188466493607 -0.01087141571539551
-0.9794870822932545 0.2008629189005259 0.0160979325196609
-0.9896079666230211 0.1394879981447783 0.03491662597976779
-0.9958833965357684 0.07769987939381269 0.04667964488476333
-0.9985071901394744 0.01578252042062482 0.05229056596503238
-0.9975694628361383 -0.04619114473796 0.05216842881105965
-0.9930557045423484 -0.1081426898456655 0.04631982630411743
-0.9848469838625017 -0.1699923519359688 0.03433684115072828
-0.9727265103054155 -0.2314486899081655 0.01531796621100312
-0.9565526962906836 -0.2913185618085591 -0.0118505174914434
-0.9366415942719628 -0.3470677191495513 -0.047397491537032
-0.9130927886171042 -0.3974380354949509 -0.09112939875448403
-0.8852291808787852 -0.4424442204763598 -0.1435702235414451
-0.8516334116077819 -0.4818707226650694 -0.2062065442015203
-0.8117641981201359 -0.5129894474182159 -0.2790711620499785
-0.7583478147818919 -0.5409606733463684 -0.3636896227666836
-0.6734094496377154 -0.5767724078373191 -0.4624427561289826
-0.6179842992993354 -0.5434198630632736 -0.5681463352410203
0 0 0
0 0 0
0 0 0
0 0 0
0 0 0
0 0 0
0 0 0
0 0 0
0 0 0
0 0 0
0 0 0
0 0 0
0 0 0
-0.6295189567140776 0.5499048399840699 -0.5489176168604113
-0.692893302894936 0.5738712939768672 -0.4365439367952119
-0.7444285126371675 0.5795720025859817 -0.3315455977558577
-0.7964108820560899 0.5571242453539138 -0.2352494042106634
-0.8371761800818955 0.5247902311891982 -0.1540495269446582
-0.8696383366795438 0.4861276367246255 -0.08607603725640649
-0.8968695209815208 0.4413399398391987 -0.02905374050116995
-0.9200413998671341 0.3913934052582446 0.01830368407941027
-0.9398397663097505 0.3367757703464274 0.05730003639093936
-0.9565192078842444 0.2778508760663957 0.08871243214811202
-0.9699708418273593 0.2154585995598246 0.1128457260176142
-0.979954177480916 0.1509263091872788 0.1300425285543416
-0.9863369186605991 0.08527144166922264 0.1409548300795905
-0.9890725954954516 0.01908294084081118 0.1461890632323644
-0.9881434460564312 -0.04727036060673603 0.1460754703015848
-0.9835402717473744 -0.1134693915070319 0.140617321273463
-0.9752659686410302 -0.1791330262168344 0.1294899584101848
-0.9633624886095221 -0.2436568400961178 0.1120895169694412
-0.9479706821312526 -0.3060216019062991 0.08776311859949786
-0.9293409716022921 -0.3649245320325943 0.05617334262885675
-0.9075603705966312 -0.4195752694123837 0.01705189197802037
-0.8823081161214147 -0.4696936286552048 -0.03033617357192643
-0.8527905938709702 -0.5149068370480274 -0.0872877549624987
-0.8176931205816637 -0.554362411076415 -0.1551137574135962
-0.7737311594729211 -0.587914062609606 -0.2360024318657684
-0.7178342361894066 -0.6120693159697047 -0.3317908404443203
-0.6621261149640842 -0.6087559386752226 -0.43704143397419
-0.5949952479347796 -0.5866014294126215 -0.5494355448513493
0 0 0
0 0 0
0 0 0
0 0 0
0 0 0
0 0 0
0 0 0
0 0 0
0 0 0
0 0 0
0 0 0
-0.5867589460111489 0.594881033140826 -0.5493910225742575
-0.6555452562398393 0.6229067789594617 -0.4269046283981838
-0.7089774956181359 0.6315123638381828 -0.3139156654685238
-0.7530163623972786 0.6227064346807669 -0.2126100989349687
-0.7925923093299878 0.5971116109651307 -0.1235117615516131
-0.8264815050184764 0.5608842029251598 -0.04834493532317396
-0.8555112356382893 0.5175883302217908 0.0142424055153909
-0.8808669936285802 0.4686972904556177 0.06630376652429727
-0.9031994418817518 0.4150283684019626 0.1094633345284903
-0.9227724824278977 0.3570336619557066 0.1449755493328194
-0.9395608461370084 0.2950891822253253 0.1736311923010863
-0.9533292703886185 0.2297952728912721 0.1958505419372882
-0.9637557136291161 0.1620160964893205 0.2119568562835271
-0.9705598318083954 0.09261295674093253 0.2223430977650546
-0.9735516185242787 0.02230549188161811 0.2273757047282658
-0.9726336096595762 -0.04830024771181546 0.2272684479455069
-0.9677976306573344 -0.1186302141678467 0.2220239139834707
-0.9591291456165675 -0.1880611825297479 0.2114338517228145
-0.9468171459755628 -0.2558483205079783 0.195138230441746
-0.9311520039549057 -0.3211115252427993 0.172752232654184
-0.9124668774267787 -0.3829857917953814 0.1439655544979008
-0.8909921985181802 -0.4408932275589932 0.1083792603423411
-0.8667213270415238 -0.4945101626516891 0.06522147104734287
-0.8393237868495647 -0.5434705897791372 0.01324004809743942
-0.8080375141709676 -0.5870730635779438 -0.04919952960761195
-0.7715086666567579 -0.623987899187936 -0.1241510327807923
-0.7287294908058722 -0.6508309751544459 -0.2130079130204483
-0.6808680704952532 -0.661587658350541 -0.3141980918120255
-0.6230357015863377 -0.6553957145621702 -0.4269460995047987
-0.5500393608894457 -0.6293726587084781 -0.5489505969962608
0 0 0
0 0 0
0 0 0
0 0 0
0 0 0
0 0 0
0 0 0
0 0 0
0 0 0
-0.5435856433869739 0.6178915689306198 -0.5680885999102833
-0.6089142851508628 0.6620172252504625 -0.4369857970356603
-0.6617410614737875 0.6807425814566227 -0.3141469486582956
-0.7050900945322024 0.6789416411996919 -0.204661199150298
-0.7420142620026714 0.6613975094327671 -0.1093991293418874
-0.7750376848191621 0.6313109177127635 -0.02762448708701859
-0.8048235082054683 0.5920750842809531 0.04130635802807854
-0.8318600860264302 0.5460948664242319 0.0989403564840948
-0.8565442374546768 0.4946688683989245 0.1470873207319826
-0.8790244035032212 0.4384631345623774 0.1872596530904079
-0.8992136327096553 0.3778466787959844 0.2205600373411938
-0.9168405422134991 0.3131476932121941 0.2476730554370785
-0.9315083541379819 0.2448499695602939 0.2689622251868661
-0.942774767082908 0.1736478111530765 0.2846439464199322
-0.9502399313316491 0.1003521522648022 0.2949127302078428
-0.9536082076926297 0.02579438614540459 0.2999433877661444
-0.9527189775505306 -0.04920569310038639 0.2998422078053409
-0.9475600510724492 -0.1238279604403376 0.2946126029632184
-0.9382726482602505 -0.1972305463456086 0.284155853564392
-0.9251456722435273 -0.2685463205172168 0.2683064644501424
-0.9085864951427308 -0.3369277859731358 0.246881039943307
-0.8890534887758764 -0.4016546906818584 0.2196756781000171
-0.8669576833071558 -0.4622358284333551 0.1863395134350695
-0.8425721915476293 -0.5183616597143171 0.1461960730281184
-0.8159608712774513 -0.5697157821652592 0.09814165321599502
-0.7869106386005553 -0.615726241179036 0.04065516917688539
-0.7548998699608078 -0.6552384353693114 -0.02808521226431367
-0.7192529134431905 -0.686040992557411 -0.1096494552395227
-0.6790841412631557 -0.7049397841837813 -0.2047062035205718
-0.6316562489321212 -0.7088335335403266 -0.3139512779297707
-0.5740183139855791 -0.6927547471394764 -0.4365705390024301
-0.50421151763841 -0.6508678525869398 -0.5675753553050344
0 0 0
0 0 0
0 0 0
0 0 0
0 0 0
0 0 0
0 0 0
0 0 0
-0.5769344585313699 0.6733211332564131 -0.4623692053645159
-0.6122287928178506 0.7177290590927875 -0.331724136864622
-0.6509888129383378 0.728606338703241 -0.2129468680929391
-0.6861985641277022 0.7191109321804129 -0.1095946978995641
-0.7179085144657245 0.6958146399887382 -0.02119791581639641
-0.7472525909749996 0.6623482588002702 0.05392911407950091
-0.7748835077322364 0.6210915877935065 0.1174767594749097
-0.8010772111985058 0.5735618923534257 0.1711784371303265
-0.8258629860718288 0.5205953281288163 0.2166352523643641
-0.8490648719569935 0.4626082341937068 0.2551126513225756
-0.8703365227562759 0.3998385463138304 0.287477780077272
-0.8892012309026266 0.3325441481496076 0.3142221514990703
-0.9051003568585826 0.2611483628063461 0.3355516005296814
-0.9174577276617492 0.1862991945151601 0.3515166113809436
-0.9257548378939542 0.1088385139224722 0.3621217447255628
-0.9295984253072935 0.02973587871629371 0.3673724883318965
-0.928768092579183 -0.04996806827430313 0.3672778544368831
-0.9232426474839253 -0.129201116124583 0.3618426252655065
-0.9132063552322305 -0.2068949113262325 0.351067868696033
-0.899032871460556 -0.2820323530414323 0.3349591734395398
-0.8812421694134881 -0.3537164567485377 0.3135233756399487
-0.8604307710451798 -0.4212486171095539 0.2867202309253483
-0.8371890276038589 -0.4841693397113297 0.2543512975064199
-0.8120256283841469 -0.5422080817196413 0.2159277077293177
-0.7853040025196412 -0.5951473633822728 0.1705791296898889
-0.7571817535790686 -0.6426346582402221 0.117031995947258
-0.7275511583858957 -0.6839506280088813 0.05367355380070853
-0.6959763992602426 -0.7177502900621867 -0.02124553572856715
-0.6615575829562921 -0.7418659801051927 -0.1094368859004578
-0.6228654610100466 -0.7528768089755696 -0.2126384913121447
-0.5797312596298778 -0.7442961418877534 -0.3315643523947651
-0.5399765352558273 -0.7024964875745291 -0.4635989930085708
0 0 0
0 0 0
0 0 0
0 0 0
0 0 0
0 0 0
0 0 0
-0.4560185377302064 0.730430835256227 -0.5084465440469568
-0.5411259225860232 0.7582669197959472 -0.3636124506237254
-0.5880768778977075 0.7736303664938341 -0.2359271958056128
-0.6241512684084424 0.7713878873730252 -0.1240803020560185
-0.6554041809307164 0.7547583910008648 -0.02802018615786843
-0.684119765392895 0.7273878076530628 0.05373196326619965
-0.7115157100240037 0.6917661423031608 0.12330855100941
-0.7381685200156163 0.6493933256348431 0.1827444792021716
-0.7642201627554507 0.6010908275382785 0.2337891355204069
-0.7895193374546878 0.5472343809938465 0.2778376289191079
-0.8137039288875604 0.4879575729822458 0.3158849839454605
-0.8362518649593108 0.4233332970238539 0.3485279586819221
-0.8565231831382759 0.3535293165423954 0.3760120464715748
-0.8738083231098592 0.2789270351574305 0.3983198758814586
-0.8873917799870924 0.2001827784184859 0.4152862675745422
-0.8966291456691023 0.1182232022157731 0.4267076863551247
-0.9010244681110752 0.03419315040988137 0.4324184736227172
-0.9002930351353073 -0.05061888226970973 0.4323310995575276
-0.8943996532898101 -0.1348634737585092 0.4264517600395789
-0.8835670798787293 -0.2172175646841852 0.414880398364693
-0.8682521510267919 -0.2964751637726108 0.3977947705832137
-0.8490910680136006 -0.3716347281425066 0.3754090929345847
-0.8268223123074037 -0.4419649251918593 0.3478963477399439
-0.802202849862664 -0.5070212576633771 0.3152777060777798
-0.7759320819749328 -0.5665952947392935 0.2773070070181036
-0.7485860281060895 -0.6206057539692923 0.2333826400239623
-0.7205524809366206 -0.6689524221767607 0.1825014495282853
-0.691952818234318 -0.7113429644899978 0.1232577957297884
-0.6625309168694068 -0.7470934991545698 0.05388958817028616
-0.6314894094827965 -0.7748912021414229 -0.02765412365070313
-0.5972865779951952 -0.7924572304268008 -0.1235325126882517
-0.5572971695536921 -0.7962861091991743 -0.2352621880028387
-0.5053741293864038 -0.7829368487620435 -0.3627766257595638
-0.4149912741128624 -0.7562773603590692 -0.5057932350462003
0 0 0
0 0 0
0 0 0
0 0 0
0 0 0
-0.3803137715547806 0.7278494021882012 -0.5706107980927595
-0.4549309681534901 0.7847138044688023 -0.4210250102915807
-0.5131561578304585 0.8116886143577358 -0.2789844995742587
-0.5545289018610526 0.8175963347700602 -0.1550288049729414
-0.5872424802608459 0.8079193363893143 -0.04911838011721414
-0.6159006578283135 0.7867701888065346 0.04073143370886806
-0.6428152338253884 0.7570175519694685 0.1171025241921087
-0.669139439671852 0.7203626654634087 0.1825651677678203
-0.6953631735969475 0.6776447923297709 0.2393064818042385
-0.7215473434134134 0.6291546083573509 0.2890223347697427
-0.7474539248852137 0.5748726467041652 0.3329175126739908
-0.7726223771640884 0.5146542927894242 0.3717332662255697
-0.7964185947831899 0.4483865130589244 0.40579176530633
-0.8180771278548655 0.3761254218940192 0.4350626160517352
-0.8367525899069186 0.2982080399633862 0.4592570828906822
-0.8515895656957438 0.21532078181699 0.4779457840758237
-0.8618100034511832 0.1285100240674414 0.4906818640072774
-0.8668060894851093 0.03913428330686375 0.4971073436407775
-0.8662208441673095 -0.05123064871785672 0.497028037199131
-0.8599997996749518 -0.1409176619049506 0.4904513809974277
-0.8484026831140007 -0.2283081031617214 0.4775859056920133
-0.8319719696691673 -0.3119666014683372 0.4588022245511688
-0.8114643590667113 -0.3907505504394703 0.4345567871932292
-0.7877597536325506 -0.4638740093785521 0.4052844358963836
-0.7617662978366402 -0.5309115680839606 0.3712748501513247
-0.7343356424806645 -0.591741629256513 0.3325552711766223
-0.7061913512130503 -0.6464440689774977 0.2887972319045001
-0.6778621753055836 -0.6951703130796855 0.239251138142901
-0.6496047958324396 -0.7379927530704422 0.1827027795273058
-0.621296224417627 -0.774724018834387 0.1174465672784747
-0.592272777925733 -0.8046790817150387 0.04128597798741278
-0.5610757129456928 -0.8263508088058839 -0.04835685192755566
-0.5249772585179091 -0.8370580392382618 -0.1540542663661617
-0.4789729172919062 -0.8327505233880271 -0.2776895934273501
-0.4148395921160048 -0.8077100464791326 -0.4189422318526789
-0.3344058761656647 -0.7526060782041006 -0.5672361069573379
0 0 0
0 0 0
0 0 0
0 0 0
-0.4069444434721408 0.7683208376678349 -0.4940438344241784
-0.4433063930862942 0.827795344752085 -0.3438521616270517
-0.482037800065645 0.8515625225359915 -0.2061087807930841
-0.5150765345253815 0.8526979068748203 -0.08719199041553767
-0.5436458231774348 0.8392088295251422 0.01333264372767993
-0.5698986866069047 0.8158224516523356 0.09823041475885544
-0.5953392226340264 0.7851402506404793 0.1706634021040178
-0.6208069775661937 0.7483945997317503 0.233461388022688
-0.6466541507452879 0.7059697197984759 0.2888687661405281
-0.6728775437503425 0.6577607472370023 0.3385064408703705
-0.6991986597372387 0.603420088031042 0.3834128735218182
-0.7251116625300235 0.5425400910918633 0.4241029667674788
-0.7499171065069524 0.4748072354838691 0.4606326329087046
-0.7727579303979263 0.4001426913371618 0.4926773869141611
-0.7926719590948447 0.318824653864298 0.5196364165000862
-0.8086696831931649 0.2315736381354009 0.5407651926714587
-0.8198362169148889 0.1395783743728995 0.5553255395190295
-0.8254443830922391 0.0444482141518998 0.5627307763755052
-0.8250569677503879 -0.05190685745582157 0.5626603576897838
-0.8185945077931923 -0.14745113613499 0.5551226839747421
-0.8063515067017962 -0.2402221116686281 0.5404540542036923
-0.7889566981372405 -0.3285159175364843 0.5192539074379164
-0.7672874948845716 -0.4110248326155736 0.4922687143899128
-0.7423595243391082 -0.4869042741032527 0.4602461998572034
-0.7152147179235998 -0.555764033922604 0.4237856130917371
-0.6868247875110606 -0.6175959078022676 0.3832062185381112
-0.6580149302522597 -0.6726600796750882 0.3384446317739684
-0.6294012589447128 -0.7213501405872831 0.2889775595327721
-0.6013282591740455 -0.7640427686520362 0.2337583632498361
-0.5737892502111742 -0.8009184949678766 0.1711591679124704
-0.5463121707737267 -0.831718547237464 0.09893063350499826
-0.5177965053448147 -0.8553852821076841 0.01424072351582841
-0.4863285372557234 -0.8695265083197125 -0.08607093109776806
-0.4492685316873367 -0.869613247913585 -0.2047695912206935
-0.4051312163556797 -0.8477281815399147 -0.3423822830655761
-0.3629571160873994 -0.790517301212999 -0.493299633452564
0 0 0
0 0 0
0 0 0
-0.2901036191219659 0.759528790049619 -0.5821991989500659
-0.3689729511858852 0.8271260920294286 -0.4239355955535029
-0.4107249828801442 0.8690972416125752 -0.2756355801770113
-0.4426110262809878 0.8851634540883282 -0.1434612803543533
-0.4698656781805485 0.882220186382249 -0.03022891343734332
-0.4946903138569937 0.8666106051206809 0.06532650662966444
-0.5185520985198524 0.8424371915733967 0.146298664978818
-0.5424102332349545 0.8118640699274868 0.2160274770550694
-0.5668097596250048 0.7757410978923598 0.277403037897208
-0.5919681043682862 0.7341120633027806 0.3326458205418362
-0.617833084205698 0.6865655126049056 0.3832885035615306
-0.6441135637294003 0.6324752505658112 0.4302240979321422
-0.6702943481121414 0.5711833518794338 0.4737668893292287
-0.6956485940694549 0.5021627188621194 0.5137174684144915
-0.7192618598681094 0.4251750190856586 0.5494438825617928
-0.7400813871081291 0.3404183036963859 0.5799956197805133
-0.7569997135589275 0.2486406161400511 0.604259280174659
-0.7689716936839865 0.1511869593170919 0.6211481607839087
-0.7751501291022282 0.0499519309661635 0.6297992393974049
-0.7750127814259519 -0.05277047486678581 0.629738410460044
-0.7684490866895459 -0.1545200438799029 0.6209746832241675
-0.7557824221633416 -0.2529397324541315 0.6039986937857931
-0.7377216389360485 -0.346021710639789 0.5796859142772267
-0.7152561423682079 -0.4322788830951071 0.5491298735587017
-0.6895227646208081 -0.5108156202271056 0.5134449914077207
-0.6616745840125284 -0.5813007924799073 0.4735780120889045
-0.6327727847181367 -0.6438680980063526 0.4301540134530142
-0.6037085660432866 -0.6989763016932198 0.3833641831955971
-0.5751496350906318 -0.7472547805146084 0.3328861520898351
-0.5474983141457813 -0.7893424957408089 0.2778201224267203
-0.520845546368339 -0.8257068942517611 0.2166288106724882
-0.4949056210727581 -0.8564070341712051 0.1470898298750369
-0.4689217322483995 -0.8807467874723615 0.06631368925247856
-0.4415541195142101 -0.8967646183619232 -0.02903754111876641
-0.4108111793841573 -0.9005854465361607 -0.1420564267474762
-0.3739910550333618 -0.8860328402200531 -0.2740009065799199
-0.3258646345478969 -0.8460614208946668 -0.4218913509716242
-0.2405762270306624 -0.7799039168350942 -0.5778174101677527
0 0 0
0 0 0
-0.3183573323242427 0.7896982607525702 -0.5244285136410459
-0.3463995659491476 0.8641610443064971 -0.3650110001264975
-0.3735215138992762 0.9015158992304245 -0.2185194775967377
-0.3976034859566389 0.9130327477456217 -0.09100917261028213
-0.4197483526928853 0.9074780836405778 0.01717114217613023
-0.4410767604402386 0.8908869534700005 0.1084975923073168
-0.4624320627550826 0.8668277275605348 0.1864571748909597
-0.4843798737846001 0.8370316876664967 0.2544682528619054
-0.5072469517581301 0.8020147290263812 0.3153932535055644
-0.5311524294542116 0.7615435469996817 0.3713872947584927
-0.5560190707437687 0.7149534044097174 0.4238919938996141
-0.5815678535768228 0.6613711962328835 0.4736739094350998
-0.6073049987845269 0.5998963011188373 0.5208695291099895
-0.6325130282958211 0.5297754563413377 0.5650356049793468
-0.6562596905837609 0.4505866537298309 0.6052230051769837
-0.6774394202647314 0.3624234463270991 0.640097709278648
-0.6948583302844712 0.2660483498585173 0.6681243719337261
-0.7073632079778513 0.1629693108061904 0.6878068738640505
-0.7139985523087122 0.05539529636446226 0.6979523110082492
-0.7141590367649395 -0.0539485836438874 0.6979014404124637
-0.7076968990350111 -0.1621236255508854 0.6876634563029105
-0.6949519625917046 -0.2663314143761462 0.667914176677168
-0.6766953212422997 -0.3642319566610632 0.6398582061329162
-0.6540051535494201 -0.454154145367291 0.6049969184851309
-0.6281109832174429 -0.5351676900786876 0.5648647061531267
-0.6002442004194272 -0.6070293507241006 0.5207900414008689
-0.5715206026969035 -0.6700441624280913 0.4737140710270332
-0.5428635249263427 -0.7248879010135678 0.4240716027614789
-0.5149616668061127 -0.7724245383524517 0.3717187300517308
-0.4882476135891903 -0.8135305235721934 0.3158834516729435
-0.4628806188953859 -0.8489138506356352 0.2551211611176191
-0.4387184528026799 -0.8788935076813623 0.1872760564673797
-0.4152680795363549 -0.9030864851997781 0.1094861743221399
-0.3916198023036089 -0.919944491644734 0.01833201396992753
-0.3664074679217383 -0.9261224277001774 -0.08968175043959276
-0.3379209070944852 -0.9158026360001384 -0.2170598821607479
-0.3048033298820314 -0.8802989716260937 -0.3635500662176623
-0.2703543437201766 -0.8079535192406646 -0.5235643604928212
0 0 0
0 0 0
-0.2994681460400159 0.830030421982291 -0.4704979575845729
-0.3119259414625616 0.8973436865904868 -0.3122122918446486
-0.3292851856052897 0.9288424652905901 -0.1697732052291765
-0.3472304986574674 0.9365879038195548 -0.04726604723242856
-0.3650969286875332 0.9292652971662995 0.05630488562601815
-0.3831705925039426 0.9123684095535227 0.1440978219438177
-0.4018542301888661 0.8889302576954522 0.2198094052419276
-0.4214646974102018 0.8602797569031503 0.2868557977444121
-0.4421987201000533 0.8266396202954305 0.348033374979614
-0.4641259296488305 0.7875408567906494 0.4054214107728619
-0.4871737828707741 0.7420996211502724 0.4603801229114929
-0.511101019039872 0.6892173027244107 0.5135710836502495
-0.5354659129446789 0.6277563924850782 0.5649762541633424
-0.5595999160691223 0.5567281626024849 0.6139231929978634
-0.5826010477316688 0.4755068333390153 0.6591428302195685
-0.6033637033807044 0.384058438899374 0.6988929509967149
-0.6206589862685357 0.2831438945013742 0.7311716335927615
-0.6332689699504115 0.1744338399701109 0.7540180681994469
-0.6401594383911141 0.060471465088372 0.7658584042424805
-0.6406544277384432 -0.05555031867939042 0.7658172538626598
-0.6345636897886431 -0.1701716436927053 0.7539035318160706
-0.6222221419207259 -0.2801182096000948 0.7310084778947648
-0.60442888186374 -0.3827022022549115 0.6987165027092097
-0.5823077729340747 -0.476074604149522 0.6589921311096465
-0.5571335411901462 -0.5592934279853983 0.6138347323940451
-0.5301684487087625 -0.6322335512645484 0.5649797807436663
-0.5025394063162905 -0.6953983690659691 0.5136878949319906
-0.4751647056261151 -0.7496963322719528 0.4606233948739781
-0.4487229231340205 -0.7962260157808256 0.4057978191758201
-0.4236478421428904 -0.836085330882034 0.3485452988229105
-0.4001313844562244 -0.8701934543559399 0.2875034385346049
-0.3781188440237288 -0.8990913844183231 0.2205919814020934
-0.3572869926933334 -0.9226686153782331 0.1450125203152043
-0.3370128498386983 -0.9397522593660178 0.05734134686300052
-0.3163924837628129 -0.9475055998148727 -0.04614037860546823
-0.2945209766730453 -0.940645605454421 -0.1686512355093817
-0.2716790588881371 -0.9106274845839809 -0.3113648555664353
-0.2531657694702047 -0.845151910834541 -0.4707710067339346
0 0 0
0 0 0
-0.250029065848336 0.870471995202445 -0.4239858155637782
-0.2621402416105236 0.927265268591677 -0.2673230543592912
-0.2767831444723209 0.9521724506845688 -0.1294554560200384
-0.2914771968439712 0.9565061240537468 -0.01170804713255855
-0.3061912448571191 0.9479025639529507 0.08790705787517351
-0.3212949720317397 0.9310615189155494 0.1728987823606422
-0.3371274674987791 0.9084715380508197 0.2470314457906861
-0.3539343858664897 0.8810994520573284 0.3136785075289437
-0.3718724154299931 0.8489162637153659 0.3755690134207098
-0.3910088633418006 0.81125231151851 0.434720319106465
-0.4113037936911236 0.7670325480735893 0.4924330000020571
-0.4325774135257889 0.7149526709804032 0.5492899594615992
-0.4544697936682986 0.6536483549419924 0.605145465755731
-0.4764033228460284 0.5818947404085475 0.659119401221153
-0.4975625932898303 0.4988519439746786 0.7096324427133968
-0.5169100412688713 0.4043424976528797 0.7545271060917852
-0.5332546858736726 0.2991106174448675 0.7913104817488014
-0.5453814825392173 0.1849825482243337 0.8175209449034055
-0.5522287501698082 0.06484108288688573 0.8311672764588044
-0.5530759798419752 -0.0576365984716438 0.831134756245013
-0.5476871554660363 -0.1784499696720531 0.8174315800490977
-0.5363609036777766 -0.2938371486338991 0.791186900225641
-0.5198710026337334 -0.4007656886333554 0.7544010892322656
-0.4993209576415045 -0.4972265207847481 0.7095381373036015
-0.4759617111372501 -0.5822923070487298 0.6590873376747334
-0.4510226526737964 -0.6559823287647709 0.6051989351638347
-0.4255885092892581 -0.7190171904568889 0.5494439922216168
-0.4005312528217826 -0.7725451999947455 0.4926952704036148
-0.3764878086294278 -0.8178942264429534 0.4350930524665883
-0.3538653483341625 -0.8563672670393662 0.3760510858804532
-0.3328545747195035 -0.8890692116934865 0.3142670343943508
-0.3134340725744413 -0.9167294427120691 0.2477220438600866
-0.2953537850758711 -0.9394680583494204 0.1736833583925801
-0.2780966214419292 -0.9564426876658119 0.08876741718210418
-0.260849248109948 -0.9653189803871811 -0.01081368876595264
-0.2426143105070082 -0.9615586665249923 -0.128620477249491
-0.2229349174232654 -0.937623413176601 -0.2667627366341522
-0.2050029805997092 -0.8820250189232322 -0.4242707201053431
0 0 0
-0.08191693007464605 0.8285339140862386 -0.5539144065431789
-0.1683919220302619 0.9064653559669827 -0.3872527844013579
-0.2005363874679087 0.9515247700712308 -0.2332075668631093
-0.2182102843509614 0.9708863431297677 -0.09881285608451468
-0.2316013861923964 0.9726877401086285 0.01547120409434244
-0.2438213073202004 0.9633026877793711 0.1122457206921798
-0.2560273634261829 0.9467355908605816 0.1952990275830943
-0.2687424373205782 0.9250402203826285 0.2684736356841254
-0.2822477314624157 0.8989000617655347 0.3351341478307415