# OOMMF: rectangular mesh v1.0
# Segment count: 1
# Begin: Segment
# Begin: Header
# Title: 
# Desc: time = 6e-11
# Desc: stepsize = 8.66316340593335e-14
# Desc: step = 382
# meshunit: m
# valueunit: (none)
# valuemultiplier: 384000.0000000002
# xmin: 0
# ymin: 0
# zmin: 0
# xmax: 9.357999999999999e-08
# ymax: 9.357999999999999e-08
# zmax: 2.3395e-08
# ValueRangeMaxMag: 0.9999999999999999
# ValueRangeMinMag: 0
# meshtype: rectangular
# xbase: 1.16975e-09
# ybase: 1.16975e-09
# zbase: 1.16975e-09
# xstepsize: 2.3395e-09
# ystepsize: 2.3395e-09
# zstepsize: 2.3395e-09
# xnodes: 40
# ynodes: 40
# znodes: 10
# End: Header
# Begin: Data Text
0 0 0
0 0 0
0 0 0
0 0 0
0 0 0
0 0 0
0 0 0
0 0 0
0 0 0
0 0 0
0 0 0
0 0 0
0 0 0
0 0 0
0 0 0
0 0 0
-0.8934724440170487 0.1412921476542613 -0.4263138759100472
-0.9068914766124581 0.1440651127018984 -0.3959710759005812
-0.9217163358117679 0.1112689799175359 -0.3715618527322716
-0.9318778361143145 0.06340998958387378 -0.3571874462797859
-0.9353823811558757 0.0107668577406193 -0.3534740100736634
-0.9320558992379675 -0.03878558244181105 -0.3602325350247422
-0.9234274365359278 -0.07502044885532656 -0.3763691030175421
-0.9145527735480138 -0.07760150133451192 -0.3969524296263523
0 0 0
0 0 0
0 0 0
0 0 0
0 0 0
0 0 0
0 0 0
0 0 0
0 0 0
0 0 0
0 0 0
0 0 0
0 0 0
0 0 0
0 0 0
0 0 0
0 0 0
0 0 0
0 0 0
0 0 0
0 0 0
0 0 0
0 0 0
0 0 0
0 0 0
0 0 0
0 0 0
0 0 0
-0.7931655851371631 0.3716468550262104 -0.4824592933120346
-0.8236841415001293 0.3902721019738905 -0.4113783191444043
-0.8639966568200399 0.3646776287998444 -0.3471599113617757
-0.9046120896390261 0.3102315596511932 -0.2922898333423553
-0.9424297563355319 0.2245170864926765 -0.2478270208153032
-0.9603067776139438 0.1741939346372838 -0.2178700667928116
-0.9728338841275256 0.1240237084134226 -0.1954798036747875
-0.9808973600587672 0.06926644761801025 -0.1817760387513206
-0.9840225493534211 0.01203758951936502 -0.1776364793688388
-0.9821003166762573 -0.04443944012285033 -0.1830412635062424
-0.9754516306810663 -0.09805079055043059 -0.1971805230596657
-0.9634696363977258 -0.1533168236319569 -0.2195910092217815
-0.9342972962839218 -0.2436001650401021 -0.2602835410643314
-0.900081939703159 -0.305181468944467 -0.3109932038374715
-0.8646707804934737 -0.3396872892941319 -0.370077001248133
-0.8372345785521191 -0.3315643833129131 -0.4348601156636255
0 0 0
0 0 0
0 0 0
0 0 0
0 0 0
0 0 0
0 0 0
0 0 0
0 0 0
0 0 0
0 0 0
0 0 0
0 0 0
0 0 0
0 0 0
0 0 0
0 0 0
0 0 0
0 0 0
0 0 0
0 0 0
0 0 0
-0.7368561389966496 0.4666986849251346 -0.4891169266260362
-0.7768151131290651 0.4874637305768673 -0.3986695265333933
-0.8360315994578623 0.4474957284813029 -0.3174881693841766
-0.8727838027752775 0.4205550833897893 -0.247753618436002
-0.9056629539725406 0.381309675583071 -0.1854118256974566
-0.9357898819152128 0.3269017080254927 -0.1320324588695006
-0.9613491159639548 0.2602809831375631 -0.08978689799890158
-0.9781719167787996 0.1989584333255303 -0.05996034551217004
-0.9895741292378866 0.138659768803028 -0.03894240951159015
-0.9966951782269532 0.07691699170083528 -0.02612466433917803
-0.9996686971336783 0.0138112307026923 -0.02171971172760595
-0.9984286909572289 -0.04974795173146971 -0.02579322337275235
-0.9927824677217612 -0.1136375245020838 -0.03833385982819165
-0.9817862744673558 -0.1801382639459358 -0.06038143034123231
-0.9626679824311043 -0.253020247181358 -0.09618269136549581
-0.9381160667668379 -0.3151124792107802 -0.1436745305179472
-0.9098481929228462 -0.363457238641717 -0.2001876657388459
-0.8771466289565109 -0.4008536049159248 -0.2644431484008157
-0.8240362746500571 -0.4512631646899796 -0.3425285013759279
-0.7868728146496582 -0.4432064357600559 -0.429417313188687
0 0 0
0 0 0
0 0 0
0 0 0
0 0 0
0 0 0
0 0 0
0 0 0
0 0 0
0 0 0
0 0 0
0 0 0
0 0 0
0 0 0
0 0 0
0 0 0
0 0 0
0 0 0
0 0 0
-0.7189959056072144 0.5413683143771253 -0.4358500153820467
-0.7728019546272987 0.538216942598344 -0.3363029313347071
-0.8142964467682767 0.5249944417475281 -0.247592675406118
-0.854577165002083 0.4911804756785438 -0.1686404736983407
-0.8864456957751996 0.4516055134513306 -0.101323682631363
-0.9137204373525022 0.4040549360782017 -0.04306473029279508
-0.9376567271170374 0.3475073019631246 0.0062078317047273
-0.9577924027857057 0.2838396351875555 0.04548378461143023
-0.9729737546160513 0.2185947383838202 0.07442051584913958
-0.9837693057574146 0.152433154524889 0.09466829696981333
-0.9906129290481309 0.08500222450208281 0.1070544096820821
-0.9936035734080308 0.01638295098851463 0.1117297535471142
-0.9926697910624764 -0.05304493911903412 0.1085952132731288
-0.9876137240075156 -0.1231076173095808 0.09728127626816817
-0.9780082321035758 -0.1939492745487763 0.07670447731156764
-0.9633058248580367 -0.2646054819358648 0.04500918488559011
-0.9441856118320624 -0.3294032526283615 0.002650955897206301
-0.921019121672661 -0.3863999530054719 -0.04918184452303634
-0.8928238798029594 -0.4365958130900531 -0.1106779817571006
-0.8564287826258004 -0.4820167132892869 -0.1849043763675746
-0.8179503739850522 -0.5080386107963043 -0.2699147191945516
-0.7683729389565488 -0.5237146341305584 -0.3678668355217276
0 0 0
0 0 0
0 0 0
0 0 0
0 0 0
0 0 0
0 0 0
0 0 0
0 0 0
0 0 0
0 0 0
0 0 0
0 0 0
0 0 0
0 0 0
0 0 0
-0.5922851373695008 0.6209215056088727 -0.5134732708949913
-0.6451378300591221 0.6532157227595314 -0.3963664967758365
-0.728003470438254 0.6213862199143746 -0.2896378993336021
-0.7791477581832541 0.5956909339218748 -0.1951437474306901
-0.8169935796689394 0.5656897319151916 -0.1118776920813535
-0.8492758513350253 0.5265240575478788 -0.03876783670112052
-0.8765939381456536 0.4806297192351581 0.02404455435698663
-0.9003309432334128 0.4281766474407631 0.07790347388159687
-0.9211696596866018 0.3691111479203136 0.1233021433464062
-0.9389962751525659 0.3044431492461727 0.160001137891823
-0.9533188608964012 0.2363402531998202 0.1879532765786012
-0.9639847571021999 0.1659152224374468 0.2078593924703527
-0.9709369882661485 0.09364776316410919 0.2202531753937245
-0.9740863759718239 0.01996840379993834 0.2252931312662688
-0.9733222899620667 -0.05459700377221187 0.2228517153671806
-0.9685405330809161 -0.1294736957674664 0.2125224644211691
-0.959666266711761 -0.2039087820100131 0.1935506785178055
-0.9467449547951057 -0.2764404813833887 0.1650898265264483
-0.9301002864983988 -0.3445893776208422 0.1271676762643561
-0.9098538763836691 -0.4071259252082517 0.080089978480052
-0.8855321780278467 -0.4639906182662496 0.02335525290294093
-0.8560573992935017 -0.5149585393063381 -0.04453573745126722
-0.8208563249903768 -0.5575803099647578 -0.123689496978913
-0.773179913638816 -0.5963411640434086 -0.2158009203243216
-0.6963982530237334 -0.6407617799616144 -0.3231931535876266
-0.6455473093362402 -0.6236102966336736 -0.4408841903960734
0 0 0
0 0 0
0 0 0
0 0 0
0 0 0
0 0 0
0 0 0
0 0 0
0 0 0
0 0 0
0 0 0
0 0 0
0 0 0
-0.5561100779263729 0.658148409445111 -0.5075256174555065
-0.6210353807450907 0.6825824160362881 -0.3852224048272157
-0.6727680907642423 0.6886869642312474 -0.2703578394413297
-0.7250664977393193 0.6684788860689664 -0.1655734058840078
-0.7659610113054881 0.6384975405765843 -0.07499746554068361
-0.7986622911903254 0.6017710968820671 0.003176725983269512
-0.8265979950167911 0.5583022942472939 0.07095282145501923
-0.8511385374752725 0.5087294479448979 0.129450912774427
-0.8730722507093133 0.4532385317576827 0.1797767459142394
-0.8926964745604106 0.3919075678136055 0.2224892415327923
-0.9098562850636789 0.3252569804092178 0.2576226644245383
-0.9241283588309038 0.2543289394996043 0.2851378034170598
-0.9351014080518329 0.1800712312070543 0.3052207534737015
-0.942437781766316 0.1032598981783092 0.3180383953669586
-0.945875746081695 0.02465555012850776 0.3235910641878978
-0.9452463203728945 -0.05489580112375817 0.3217077009343777
-0.9405019312283366 -0.1344287153318906 0.3120657588553825
-0.9317419387004325 -0.2127921820909729 0.2942387583370359
-0.9192237432504889 -0.2885632061178797 0.2678786776126986
-0.9033044581675135 -0.3602219235281709 0.2329833076946895
-0.8842245476541225 -0.4268572424296848 0.1895780681175615
-0.8619169301181198 -0.4881394226194464 0.1371827600703122
-0.8358983683161904 -0.5437756944325191 0.07471219439128621
-0.8050921766004872 -0.5931489261313542 0.0009688167578702198
-0.7665577025318655 -0.63635457835776 -0.08626783463252197
-0.7173232121422646 -0.6705750369492072 -0.1891468454467908
-0.6675954263099576 -0.6799118248704014 -0.3033747800517138
-0.605697992695336 -0.6711988070644404 -0.4273430741688836
0 0 0
0 0 0
0 0 0
0 0 0
0 0 0
0 0 0
0 0 0
0 0 0
0 0 0
0 0 0
0 0 0
-0.5005257918940754 0.6924702028148365 -0.5195757402558234
-0.5709478995702734 0.7228358906936703 -0.3892643974233713
-0.6242828570003788 0.7339135292922431 -0.2676599446634617
-0.6673159189295189 0.7279428346667693 -0.1574442561688394
-0.7056999040616682 0.7060254227200866 -0.05929374233655689
-0.7384514428102243 0.673817496315545 0.02567972489236058
-0.7666860914702814 0.6343457757363019 0.09898421061730724
-0.7918757438056182 0.5886367789056401 0.1626024258487249
-0.8148821721454953 0.5370679430793182 0.2180024541971684
-0.83609198878924 0.4796702209759799 0.2662079363792655
-0.8555178748180545 0.4164205956878063 0.3077061152362933
-0.8728608931579209 0.3475521829625576 0.3425220304060989
-0.8876141709401716 0.2736597896890907 0.3704745646512232
-0.8992109053782519 0.1955430617167853 0.3913855626658309
-0.9071329730301101 0.1141194339528415 0.4050759484785978
-0.9109769228368959 0.03043505886268227 0.4113328983325358
-0.9105040239759042 -0.05431804875822208 0.4099170305107905
-0.9056777241876319 -0.1388111686314898 0.4005987011629848
-0.8966801978516402 -0.2216139726839574 0.3832125648931368
-0.8838864933373973 -0.3012780006841664 0.3577376597444967
-0.8677765557624283 -0.3765411118766309 0.3243156492305093
-0.8487935541918195 -0.4465960413001424 0.2830220455326038
-0.8272084542237436 -0.5110613381176384 0.2335433191983291
-0.8029932781314109 -0.5697065501392097 0.1750321170649822
-0.7756531813010439 -0.6221706823331998 0.1061403993897211
-0.744047995077426 -0.6676617966658051 0.02490594897310354
-0.7071249462423085 -0.703583346290073 -0.07031916684002129
-0.6654079617920236 -0.7247693079316271 -0.1787223955303149
-0.6137306811460741 -0.7301520842400043 -0.3003540991895276
-0.5463460658712761 -0.7165403411653478 -0.4336772022940856
0 0 0
0 0 0
0 0 0
0 0 0
0 0 0
0 0 0
0 0 0
0 0 0
0 0 0
-0.4466718347694218 0.7046034251250519 -0.5513785317962268
-0.5137829770999633 0.7519056525031712 -0.4131161364266443
-0.566330429616227 0.7742257307201205 -0.2825674474910267
-0.6080350930123314 0.7765962983149419 -0.1648984994140763
-0.6425267491873579 0.7638382595535237 -0.06091379007227342
-0.6728442322120388 0.7391646611073346 0.03026950526635824
-0.7000252719869731 0.7056606004727505 0.1095798134694556
-0.7249025314635114 0.6652666688580267 0.1787080837129
-0.7481849552973739 0.6187740901367053 0.2394533316580876
-0.7702699646748532 0.5663226490894649 0.2931941995471432
-0.791235450878228 0.5077532390646865 0.340783082756239
-0.8108755396096121 0.4428866745880088 0.382533988993389
-0.8287428315719896 0.3717583534701084 0.4183073579836168
-0.8442141452861228 0.2947489354104466 0.4476891130832066
-0.8565931156114179 0.2125835698757393 0.4701664174587646
-0.8652188464281123 0.1262978013612939 0.485226970764104
-0.8695632840484672 0.03720522187609495 0.4924179794645949
-0.869308387502202 -0.05314781536694421 0.4914043519750733
-0.8643996828746601 -0.1430648675306349 0.4820224392335152
-0.8550604157006955 -0.2308204232917826 0.4643205979634711
-0.8417552786413236 -0.3148235076813013 0.4385592433077978
-0.8250995217020638 -0.3938050691371456 0.4051275685619439
-0.8057381521292186 -0.4669572716818612 0.3643308065849268
-0.7842242520430449 -0.5338980408398261 0.3161411148441805
-0.7609031201758754 -0.5944842445149663 0.2600286998200121
-0.7357968132776402 -0.6485491091200792 0.194902803032743
-0.7085326388703356 -0.6955466839371089 0.1191482694776945
-0.6784198557972926 -0.7340168313158026 0.03107717176784403
-0.6443417433099695 -0.7614823650748547 -0.0704863498010375
-0.6033182099979207 -0.7752655413448261 -0.187003951531024
-0.5518876995216406 -0.770634498236523 -0.318657241004269
-0.4870496502704911 -0.7415256539140722 -0.461435090515122
0 0 0
0 0 0
0 0 0
0 0 0
0 0 0
0 0 0
0 0 0
0 0 0
-0.4741649039021553 0.7538086815372735 -0.4549067108171698
-0.5087004556740429 0.8012021937512793 -0.3151172656728885
-0.5452721062033242 0.8167776503407645 -0.1885539713196451
-0.5771313288880896 0.8129987819118835 -0.07715186210105533
-0.6047295102917513 0.796179189979632 0.02002290752300067
-0.6296295475601966 0.7697798173863708 0.1049078909508086
-0.6528936673187006 0.7358932264683732 0.179418556490416
-0.6751928406518911 0.6956128441216171 0.2454330846187276
-0.6969211462673768 0.649254296012269 0.3045813109745537
-0.7182131246294549 0.5966472882090562 0.3580250285703135
-0.7389516355956252 0.5374068819008849 0.4063795313941364
-0.758783866862921 0.4711701663245105 0.4497173754195909
-0.7771440720427987 0.3978041665352079 0.4876463230415715
-0.7933025033630933 0.3175549102282351 0.5194516504428356
-0.8064468638132427 0.2311210910677132 0.5442669355283803
-0.8157913452622423 0.13966443775157 0.5612292987921761
-0.8206898676351869 0.04477257929930827 0.5696170268731664
-0.8207390241654727 -0.0516355679203731 0.568965044917038
-0.8158479379591949 -0.1474621803084321 0.5591485021945533
-0.8062602587529114 -0.2406340061764771 0.5404069487221147
-0.7925140541366483 -0.3293223857759079 0.5132915742760215
-0.7753490372963848 -0.4121363882253644 0.4785159013701842
-0.7555834860697755 -0.4882216809541104 0.4367301063872135
-0.7339902724290233 -0.5572227140443263 0.3882797019323084
-0.7111821371487156 -0.6191233684955884 0.3330258584303333
-0.6875095151415921 -0.6740153963141671 0.270247871631264
-0.6629732379941385 -0.721807715394097 0.1986456838220271
-0.6371413485271215 -0.7618940145537527 0.1164835292400006
-0.609011919140142 -0.7928632671375949 0.02173296963460961
-0.5769610605915235 -0.812017921289324 -0.08799335239703389
-0.5403217406173503 -0.8136530876089376 -0.2145252191251142
-0.5055655255996461 -0.7853060292848992 -0.3573484849470294
0 0 0
0 0 0
0 0 0
0 0 0
0 0 0
0 0 0
0 0 0
-0.3436908415393203 0.7923644833865847 -0.5040189787195554
-0.4307028020352505 0.828032390014021 -0.3589672093752448
-0.4759635255799831 0.8499441672455827 -0.225950514234167
-0.5083166350264495 0.8544596736051978 -0.107298018331586
-0.5344779732775794 0.8451753402882719 -0.003455466639101358
-0.5572059354974574 0.8257928848285133 0.08710715707107038
-0.5781625677712958 0.7987111392140541 0.1666990141647174
-0.59836569998712 0.7651945567766061 0.2375621589360902
-0.6183967708622435 0.7256811524626031 0.3016161447066407
-0.6385289414613836 0.6800290885659552 0.3603348853779775
-0.6587845293152748 0.6277434020347029 0.414657889273493
-0.6789571072554157 0.568188231589857 0.4649509436383026
-0.6986183456955768 0.5007936083633759 0.5110167990193316
-0.717132670638411 0.4252530755883876 0.5521598993096442
-0.7336929453858202 0.3416975389539764 0.5873137609181948
-0.7473951321521444 0.2508159790404507 0.6152169219822045
-0.7573454352188856 0.1539085861213541 0.6346180259583252
-0.7627896502128356 0.05285223959838529 0.6444831962880132
-0.7632355640068185 -0.05002921104908955 0.6441805273966285
-0.7585448103949038 -0.152190531025417 0.6335990947666825
-0.7489638165916102 -0.2511486873349685 0.6131700728887951
-0.7350858224485655 -0.3447697636330337 0.5837659151745133
-0.7177495015496888 -0.4314843665743446 0.5464951000943276
-0.697905923937573 -0.5103814124179478 0.5024322194994091
-0.676481454014256 -0.5811591361908133 0.4523570501237987
-0.6542575129080846 -0.6439678413687507 0.3965507862634973
-0.6317675294189615 -0.699186534244376 0.3346759314668421
-0.6092030150296845 -0.7471675228453054 0.2657298991155325
-0.5863038190553728 -0.787957492601941 0.188071320550331
-0.5622080892893088 -0.8209905058317756 0.09948192635724837
-0.5352565337772556 -0.844685405522663 -0.002647403590540926
-0.5026223256459107 -0.8560582612409706 -0.1205613998068256
-0.4579533954227503 -0.8516239929559376 -0.2549809056430657
-0.3754659769133776 -0.8335577057277066 -0.4052244457118108
0 0 0
0 0 0
0 0 0
0 0 0
0 0 0
-0.2619926388988597 0.7746426770219577 -0.5755767369335437
-0.3384913883613294 0.8389683502747813 -0.4260935193621588
-0.3961976168953019 0.8738872670824859 -0.2816886451342799
-0.4343127150894748 0.8876923677458696 -0.1528879516421732
-0.4616341755836923 0.8861406687882249 -0.04060299314977821
-0.4833303392897839 0.873593420730558 0.05680068994566612
-0.5021971510674559 0.8530303579194121 0.1419057078753683
-0.5198469924543528 0.8261215246294277 0.2174450067950815
-0.5372315527640514 0.7935252046228589 0.2858321331533166
-0.5548860846606655 0.7551909576568239 0.3489814472480233
-0.573051188013538 0.7105969722485445 0.4082453661065524
-0.5917305553011324 0.6589434059823457 0.4643797343073855
-0.6107071750012725 0.599335803490143 0.5175261742721705
-0.6295457389731272 0.530975663843464 0.5672186588492758
-0.6475957389392165 0.4533660592852381 0.6124369152785805
-0.664020794760811 0.3665131075954053 0.6517242715182384
-0.6778632685302228 0.2710949947706948 0.6833804891770023
-0.6881539363994794 0.1685537347532437 0.7057150971310119
-0.6940489602235985 0.06107411563199164 0.7173325541283561
-0.6949738921275928 -0.04858129747456792 0.7173919060016719
-0.6907332627910155 -0.1573684558949913 0.7057781016461921
-0.6815575026416104 -0.262340000298604 0.6831230451655534
-0.668065155456553 -0.3610075175705344 0.6506631388993624
-0.6511554575049815 -0.451599839406937 0.6099624211450293
-0.6318592659914205 -0.5331562717256776 0.5625817788556235
-0.6111894882842922 -0.6054613075118954 0.5097685891821599
-0.5900118017208119 -0.6688621750319493 0.4522272267806198
-0.5689436506406255 -0.7240319171609265 0.389975518882904
-0.5482660083682219 -0.7717131066553508 0.3222782417171894
-0.5278246659057462 -0.8124545490633724 0.2476261855453063
-0.5068857526749556 -0.8463152563653745 0.1637599480286715
-0.4838935664263268 -0.8724968643125741 0.06779556132914998
-0.4559921126054071 -0.8889260678251892 -0.04337786512155279
-0.4180114363426936 -0.8919387631225213 -0.1723707687694879
-0.3614870170134681 -0.8758554743866065 -0.3196941108586713
-0.286894837283932 -0.8313025480144455 -0.4760540158474831
0 0 0
0 0 0
0 0 0
0 0 0
-0.2875592031460545 0.809228638721263 -0.5123072466394913
-0.3235122399922591 0.8755402208140899 -0.3588441894639015
-0.3595926646300872 0.90739703543909 -0.2175401931151648
-0.38754290108318 0.9170752314900052 -0.09372043324475628
-0.4088734235929832 0.9124993622757654 0.01293975755851785
-0.4261609445007104 0.8985215087001022 0.1050997040221991
-0.4413488032304571 0.8778500440883513 0.185985305820438
-0.4557190043732242 0.8517242734934444 0.2586231834061687
-0.4700844690526778 0.8203975991790003 0.3255278347803661
-0.4849316181461846 0.7834720936956462 0.3886036594298652
-0.5005030859564634 0.7401262517471385 0.4491211333513346
-0.5168313918599811 0.6892913624393198 0.5077033878699452
-0.5337456032294428 0.629818679963897 0.5643084807104812
-0.5508606621790224 0.5606700079110027 0.6182246137875489
-0.5675735519109569 0.481138368778268 0.6681063787007026
-0.5830784860241229 0.3910884142773743 0.7120880081519591
-0.5964247270718911 0.2911734467192346 0.7479943641919102
-0.6066177147725985 0.1829748135276563 0.773650544974014
-0.6127629570195623 0.06899509703821306 0.7872491569314815
-0.614219941614124 -0.0475342862926775 0.7877019455036192
-0.6107326350099659 -0.1630304328326994 0.7748720710570006
-0.6024884899696294 -0.2740384529815496 0.7496069274903971
-0.5900893713780209 -0.377689086208062 0.7135443139329262
-0.5744374537572378 -0.4720042139244838 0.6687552869012927
-0.5565780325889457 -0.5559948039487436 0.6173254179291632
-0.5375379794830653 -0.6295618892539552 0.5609855151536922
-0.5181947559890141 -0.6932742253301171 0.5008443304644778
-0.4991795479126466 -0.7480932584436255 0.4372370702684339
-0.4808059228246768 -0.7950993209659823 0.3696521802669959
-0.4629966153724495 -0.8352239146198749 0.2967071731534421
-0.4451828807905607 -0.8689603515976143 0.2161483518381916
-0.4261483676878219 -0.895987209999512 0.1249179259926065
-0.4038343152941212 -0.9146265025122974 0.01939604838749213
-0.3753752022008631 -0.9210260957741222 -0.1039441603734328
-0.3387987268396653 -0.907886874382837 -0.2468944025594418
-0.3017698736254824 -0.8625184951677326 -0.4061979675794176
0 0 0
0 0 0
0 0 0
-0.1665947488056733 0.7804256858082397 -0.6026457820321259
-0.247657042161499 0.8585170228013335 -0.4490150454362873
-0.2879514315988193 0.9096341847945617 -0.2994154686941253
-0.3155374272215221 0.9346614577562562 -0.1638416656634444
-0.335934786348204 0.9407672708585356 -0.04587767869637507
-0.351647197753223 0.934488167146072 0.05546272420535937
-0.3645048656248563 0.9201231134483414 0.1432119374700837
-0.3758536773674159 0.8999849671136209 0.2208190937824078
-0.3866433261736559 0.8749780028407411 0.2914111062917797
-0.3975259612814585 0.8450720208466417 0.3575281662882301
-0.4089331608605188 0.8096207546086938 0.4210557013691578
-0.4211161001634859 0.7675722655596579 0.4832122176918853
-0.4341600836116459 0.7176278389173104 0.5445321906087817
-0.4479745285952648 0.6584022343025434 0.6048349523591273
-0.4622757393368171 0.5886174653844385 0.6631972710023747
-0.4765687392103505 0.5073480495989762 0.7179694933460408
-0.4901528382568813 0.4143014088069507 0.7668797414257976
-0.5021602861306594 0.3100916904958591 0.8072658735005421
-0.51164711605132 0.1964272849538881 0.8364410023199543
-0.5177256046331257 0.07612900328022845 0.8521529048045439
-0.5197241055092821 -0.04709252994372314 0.8530352558810655
-0.5173251688259293 -0.1690938749211615 0.8389171181728081
-0.5106427764783834 -0.285896613059495 0.8108681036220107
-0.5002019332322291 -0.394245169521117 0.7709531583047088
-0.4868330791465366 -0.4919697393706434 0.7217751232844493
-0.4715124122023768 -0.5780779119348899 0.665959437857962
-0.4552025683122176 -0.6526153965378745 0.6057093081699115
-0.4387228139638268 -0.7163844817340455 0.5425085868797869
-0.4226640954127722 -0.7706234590077048 0.4769638842469127
-0.4073332656963042 -0.816702477460339 0.4087501363514482
-0.3927085167390452 -0.8558509102292313 0.3365995251636795
-0.37837814406326 -0.8888778261443049 0.2583141310192229
-0.3634480550145005 -0.9158202547385323 0.1708179508038471
-0.3464199989315659 -0.9354363868782547 0.07037009623702953
-0.3250962283333187 -0.9445221776171553 -0.04680062299581652
-0.2964759675537898 -0.9373515265675098 -0.1829593296462423
-0.2549748534296139 -0.9066210669994236 -0.3361934933804827
-0.1752674548082692 -0.8494092875471357 -0.4977802542424691
0 0 0
0 0 0
-0.196863916557718 0.8052257876012201 -0.559335346048817
-0.224731982659928 0.8886753228511772 -0.3996895126533754
-0.2487715914798788 0.9353819062588783 -0.2513431612677659
-0.2669437863534238 0.9561503748600778 -0.1204884873431045
-0.2805542005983472 0.959805698179687 -0.007896978436395969
-0.2909871017598417 0.9526092569831015 0.08866854075437353
-0.2993892536509801 0.93837867980625 0.1726601519847225
-0.306652058289571 0.9190450619775744 0.2476301459867207
-0.3134500778421145 0.8952356206844101 0.3167052764930983
-0.320291373412987 0.8667087535062037 0.3823994936096857
-0.327551577065713 0.8326381772382784 0.4465687294998167
-0.3354924801124326 0.7917958362118374 0.5103960712482072
-0.3442589310890129 0.7426947556738277 0.5743607649030723
-0.3538647722583727 0.6837407530615077 0.6381835986277077
-0.3641655681521783 0.6134341052819478 0.7007724576846156
-0.3748358412234219 0.5306369600810962 0.7602121471867058
-0.3853561448126904 0.434898329266483 0.8138575335132812
-0.3950349131144939 0.3267815011906937 0.858580961762011
-0.4030699334444263 0.2081070112682577 0.8911936381135684
-0.4086618787247385 0.08199475351769528 0.9089952306105563
-0.4111558282345052 -0.04737959361093464 0.9103329385549331
-0.4101829268484213 -0.1753280407171366 0.8949916450226515
-0.4057458758121592 -0.2973650669884129 0.8642593946243222
-0.3982223244994448 -0.4098757895502362 0.8206222135738395
-0.3882765125392121 -0.5105272841764052 0.7672048239693556
-0.3767202999109254 -0.5983528413202597 0.7071461609306758
-0.3643642828940086 -0.6735574700187661 0.643085533916798
-0.3519023655142622 -0.7371761112719792 0.5768328233685978
-0.3398357137513221 -0.7906991687323075 0.5092214765945818
-0.328432899372484 -0.8357422953162622 0.4400757280619876
-0.3177013463757377 -0.873767566539989 0.3682337493682895
-0.307354151692328 -0.9058234915986143 0.2915771381737314
-0.2967530139306424 -0.9322306696122907 0.2070836240683915
-0.284831708278966 -0.9521319601238507 0.1109758012793736
-0.2700326161577448 -0.9628508062160159 -0.00084331498943404
-0.2503708159122815 -0.9591361082391791 -0.1318043262234564
-0.2240331383397585 -0.9326010129354732 -0.2829567168267385
-0.1934819310111234 -0.8715416017581893 -0.4505329941047332
0 0 0
0 0 0
-0.1797055575211689 0.8381351640413647 -0.5150100575652474
-0.190651780026812 0.9148858834674078 -0.3558591280333658
-0.2035161356564174 0.955964696532448 -0.2114537337364897
-0.2141295236811502 0.9730255030246389 -0.08584822392880935
-0.2219927391684736 0.9748085399126184 0.02162254078284936
-0.2276066499845534 0.967069730128856 0.1138918344364934
-0.231617430948514 0.953140246841654 0.1946202341264644
-0.234600586998447 0.9346031256621998 0.2673566196719827
-0.2370347829084679 0.9118543432895017 0.3351658817893103
-0.23931549199908 0.8844912178791143 0.4005039085751324
-0.2417732332090762 0.8515555969178241 0.4651868109282083
-0.2446786288681774 0.8116898203819913 0.530369686222203
-0.2482400930420127 0.763261008591208 0.596497685637441
-0.2525861926868874 0.7045067469148562 0.6632273055411608
-0.2577432590737019 0.6337404665653247 0.7293431520482181
-0.2636042909363496 0.5496413848648253 0.7927213418622082
-0.2699075715553527 0.4516159741297732 0.8504074992189963
-0.2762288202336149 0.3401784196439209 0.8988750089311131
-0.2820112776495264 0.2172412894292997 0.9344923014372969
-0.2866338470715377 0.08618745932921591 0.9541555216878138
-0.2895228476188796 -0.04839601320200727 0.9559468325240713
-0.2902719109319926 -0.1813357075342669 0.9396060764474308
-0.2887390402462974 -0.3077045113896246 0.9066133135511072
-0.2850748970206577 -0.4235852113635484 0.859830141250444
-0.2796788185020758 -0.5265278097155345 0.8028376075380648
-0.2730944922318621 -0.6156121167281953 0.7392165582899581
-0.2658943891864433 -0.6912023267273604 0.6719669019571207
-0.258580075377371 -0.754541338172141 0.603161432460023
-0.2515201386819328 -0.8073332637623601 0.533807662983809
-0.2449136565184911 -0.8513877816770992 0.4638492708431151
-0.2387702994475668 -0.888343605333611 0.3922172650006625
-0.2328845740396194 -0.9194275619787738 0.3168875722526082
-0.2267984531559951 -0.9451824906125814 0.2349308857631201
-0.2197525744849801 -0.9650744373685733 0.1426188498935326
-0.2106817662404368 -0.9769021264065553 0.03571314598519013
-0.1984402503872661 -0.975987627942957 -0.0898310476868556
-0.182854433978838 -0.9542764948166074 -0.2364754266616455
-0.1682405561392921 -0.8997213803358339 -0.4027363319052833
0 0 0
0 0 0
-0.1317481620356653 0.8698243935435102 -0.4754449980774728
-0.1416867678988911 0.9371271061156718 -0.3189320410144313
-0.1508905016917087 0.972092424101466 -0.1796340043080893
-0.1571897659637067 0.9857857481626239 -0.0593113496367277
-0.1607621800376552 0.9860338121906604 0.04350681195276046
-0.1621780230962276 0.9778894069170763 0.1320249849989286
-0.1619743178214911 0.964206676425136 0.2099280960316039
-0.1605960585161333 0.9462669949623294 0.2806914324200944
-0.1584135990045557 0.924280780802459 0.3472897491859204
-0.1557516561016767 0.8977245229063169 0.4121069067538294
-0.1529074130055115 0.8655480862260632 0.4769128153849092
-0.150163777752873 0.8263053406006713 0.5428354483135689
-0.1477896164525773 0.7782642707617837 0.6102974308682839
-0.146035275376943 0.7195448276076155 0.6789174761402939
-0.1451133224234897 0.6483284524635341 0.7474037338557081
-0.1451742557041736 0.5631618107882025 0.8134944439579727
-0.1462705453659404 0.4633488261664267 0.8740210482869069
-0.148327295934825 0.3493686619219449 0.9251705525726224
-0.1511228329705502 0.2232082534399445 0.9629849245711189
-0.1543054383726902 0.08845376161266187 0.9840557726801775
-0.1574447149258903 -0.04998795646447133 0.9862618140992837
-0.1601209530513671 -0.1865739717086341 0.9693046133568057
-0.162017169219178 -0.3160476796448973 0.9348070929712072
-0.1629901958370322 -0.4342830203253631 0.8859077007894699
-0.1630816670209853 -0.5387643835665797 0.8265212089727514
-0.162477778564867 -0.6286308140493897 0.7605420902883853
-0.1614342948019878 -0.7043792038363447 0.6912227612460842
-0.1602062364498629 -0.7674139852846843 0.6208137699761885
-0.1589908069594381 -0.8195932193658588 0.550444255190199
-0.157892578086015 -0.8628618870457071 0.4801450798136663
-0.1568943424135197 -0.898977022961109 0.4089308957594301
-0.1558282133632875 -0.9292888015462557 0.3348729479082003
-0.1543299350337855 -0.9545032484261812 0.2551584211746393
-0.1517801995296706 -0.974345901779117 0.1661711007274483
-0.1472532564867595 -0.9870443791257014 0.06371712556607106
-0.1395922165022099 -0.988600773031811 -0.05641386933108541
-0.1280229581756752 -0.9719381003855152 -0.1973485525635912
-0.1148679602126069 -0.9259349049641693 -0.3597914722246606
0 0 0
0.03716715198867073 0.8017548234114591 -0.5964962748831798
-0.05168540134337519 0.8951039983537434 -0.4428515004142075
-0.08159507829557924 0.9529367478428392 -0.2919825299716587
-0.09331077026656147 0.983150815582747 -0.1571864306205829
-0.09760753671713084 0.9943790923834401 -0.04102425388351256
-0.09791400855113648 0.9934949118857767 0.05814384736599485
-0.09560207683885272 0.9849994680685125 0.1436533703358342
-0.0913650835234984 0.971394019274315 0.2191941624013611
-0.0856336375079135 0.9537400619382029 0.2881783725078533
-0.07873008822027482 0.9321148540582386 0.3535017285004626