# OOMMF: rectangular mesh v1.0
# Segment count: 1
# Begin: Segment
# Begin: Header
# Title: 
# Desc: time = 1.74e-09
# Desc: stepsize = 8.865074893690616e-14
# Desc: step = 11134
# meshunit: m
# valueunit: (none)
# valuemultiplier: 384000.0000000001
# xmin: 0
# ymin: 0
# zmin: 0
# xmax: 9.357999999999999e-08
# ymax: 9.357999999999999e-08
# zmax: 2.3395e-08
# ValueRangeMaxMag: 1
# ValueRangeMinMag: 0
# meshtype: rectangular
# xbase: 1.16975e-09
# ybase: 1.16975e-09
# zbase: 1.16975e-09
# xstepsize: 2.3395e-09
# ystepsize: 2.3395e-09
# zstepsize: 2.3395e-09
# xnodes: 40
# ynodes: 40
# znodes: 10
# End: Header
# Begin: Data Text
0 0 0
0 0 0
0 0 0
0 0 0
0 0 0
0 0 0
0 0 0
0 0 0
0 0 0
0 0 0
0 0 0
0 0 0
0 0 0
0 0 0
0 0 0
0 0 0
-0.8368263777857882 0.03166981398566075 -0.5465515861508685
-0.8467261669860653 0.05011169594486607 -0.5296636820385315
-0.8573421728667663 0.03075152130466116 -0.5138275416533643
-0.8629670608735065 -0.004317591010306887 -0.5052417344749033
-0.8617986828813526 -0.04390512273690615 -0.5053467823004539
-0.8539067808508128 -0.07936237910703481 -0.514339209471213
-0.8412875635719363 -0.09939546408207639 -0.5313715998236103
-0.8300734696296287 -0.08134471686859297 -0.5516892894144291
0 0 0
0 0 0
0 0 0
0 0 0
0 0 0
0 0 0
0 0 0
0 0 0
0 0 0
0 0 0
0 0 0
0 0 0
0 0 0
0 0 0
0 0 0
0 0 0
0 0 0
0 0 0
0 0 0
0 0 0
0 0 0
0 0 0
0 0 0
0 0 0
0 0 0
0 0 0
0 0 0
0 0 0
-0.7802684769204236 0.2428847132569716 -0.5763576320223064
-0.8083600372438332 0.2724734316236325 -0.5218354905967872
-0.8456113435491188 0.2551315090300604 -0.4688809750470769
-0.8825477089580275 0.2068478768650995 -0.4222836691719642
-0.914969290130961 0.1249146990509871 -0.3837023795577058
-0.9283960933383696 0.08410964162530253 -0.361947872019875
-0.9368367779411663 0.04496485605455604 -0.3468645459207473
-0.9408030034157377 0.001865449714967672 -0.338948711254797
-0.9397702670010312 -0.04308631342149462 -0.3390802484022839
-0.9337531002163473 -0.08649638893395693 -0.3473089727285275
-0.923272524764863 -0.1262235439149642 -0.3628160167024903
-0.9076135614791856 -0.1676842097815116 -0.3848631299683276
-0.87175790402174 -0.2494793353933002 -0.4216612597658687
-0.8314350763791414 -0.2991223034118064 -0.4682323796663637
-0.7911967407902039 -0.3182613196529087 -0.5222235630223394
-0.7610829282978786 -0.2903174548271458 -0.5800590932622416
0 0 0
0 0 0
0 0 0
0 0 0
0 0 0
0 0 0
0 0 0
0 0 0
0 0 0
0 0 0
0 0 0
0 0 0
0 0 0
0 0 0
0 0 0
0 0 0
0 0 0
0 0 0
0 0 0
0 0 0
0 0 0
0 0 0
-0.7525054169164611 0.3368057135303953 -0.5659483270093335
-0.7904517694732885 0.3652064506064832 -0.4917420549149327
-0.8460590663899428 0.3280350920495992 -0.4202107025807275
-0.8803416470267457 0.3068566345966915 -0.3617147913954146
-0.9107179836858752 0.2736137604980659 -0.3093998452766906
-0.9377729131143371 0.2247606895871192 -0.2646971776301596
-0.9592755260949426 0.1636203028277533 -0.2302582496629047
-0.9718684295861144 0.1100897891254847 -0.2082114163635739
-0.9791617792518738 0.05932310040146652 -0.1942240453987648
-0.9822763100230266 0.008294550328957611 -0.1872550431961352
-0.9813421756549988 -0.04319977513008078 -0.1873534459502225
-0.976342478423347 -0.09444243379876076 -0.1945147591426474
-0.9670849733772767 -0.1456320812545741 -0.2086574972948073
-0.9522978702755786 -0.1997486088073651 -0.2307146712892768
-0.9281448386582238 -0.2615448161554456 -0.2648423448286036
-0.8983288697029386 -0.3115389585297562 -0.3097559025691604
-0.8652416566190521 -0.3462446232423325 -0.3625900391997728
-0.8282923644790008 -0.3690682907350944 -0.4215689216719623
-0.7695975010959492 -0.4072668355756975 -0.4917859401681058
-0.729189085452644 -0.3809411618571747 -0.568477887749068
0 0 0
0 0 0
0 0 0
0 0 0
0 0 0
0 0 0
0 0 0
0 0 0
0 0 0
0 0 0
0 0 0
0 0 0
0 0 0
0 0 0
0 0 0
0 0 0
0 0 0
0 0 0
0 0 0
-0.7558172548839808 0.4173383729123111 -0.5045482729279209
-0.8072898338916557 0.4171019971547768 -0.4175033509622156
-0.8473364605633237 0.4073053075131887 -0.3407687031867879
-0.8856821777251693 0.376093033847567 -0.2722519236871128
-0.9154973588155102 0.3399426570212014 -0.2151826571524532
-0.9403931396827622 0.2964558920393394 -0.1666572738069234
-0.9613700123581117 0.2444580827179954 -0.1265225084022805
-0.9778257150564555 0.1861669566147967 -0.09591003721777545
-0.9889229420271177 0.1279851518115238 -0.07517456782855872
-0.9955578679970021 0.07061382696913632 -0.06227534753043184
-0.998338319892866 0.01341745903066801 -0.05604079609221552
-0.9974609457660195 -0.04385536928815991 -0.05611032218902558
-0.9929047019835212 -0.1011792298011365 -0.06247412453058446
-0.98442157196466 -0.1588026405881647 -0.07547112025704525
-0.9713361798350985 -0.2173502741947641 -0.09625426770183762
-0.9527078848824029 -0.2761274489969631 -0.1268909689194905
-0.9294635866184979 -0.3288408908230128 -0.1672157578489681
-0.902219265682463 -0.3732992294488727 -0.2159816703432825
-0.8698822493957216 -0.4107337039250323 -0.2731349421920655
-0.8286720882635461 -0.4435504501456668 -0.341417000614365
-0.7856744192218343 -0.4554349908638182 -0.4186820704034342
-0.7314777007587379 -0.4567902862957454 -0.506244019854616
0 0 0
0 0 0
0 0 0
0 0 0
0 0 0
0 0 0
0 0 0
0 0 0
0 0 0
0 0 0
0 0 0
0 0 0
0 0 0
0 0 0
0 0 0
0 0 0
-0.6500392633797737 0.5065101488307951 -0.566477206245835
-0.7016865315100683 0.5421644801894892 -0.4622701460382556
-0.7821662387338032 0.5075561312853651 -0.3613900228003642
-0.8320079014702166 0.4811283008849843 -0.276185463011096
-0.8688985387026956 0.4513880643096242 -0.2031357793179968
-0.8999089937946881 0.4128928277179036 -0.1402972405521385
-0.9254951014636796 0.3684427262819651 -0.08779962765664651
-0.9469385387436612 0.3183694999882626 -0.04413915856971675
-0.964823677883233 0.2627538917147664 -0.00869844725313516
-0.9790243864702098 0.2029112534674802 0.01839222425060402
-0.9892454198505436 0.14142235757381 0.03732580987716572
-0.9956210016034804 0.07949111813875226 0.04919332579865413
-0.9983404958604337 0.017403884597576 0.05489407186624781
-0.9974911183494295 -0.04476169563488977 0.05484395516274303
-0.9930569685367698 -0.1069213032887801 0.04904785564720524
-0.9849195840040944 -0.1689887230278344 0.03709750038241139
-0.9728646831192745 -0.2306663729872963 0.01809233849225538
-0.9567538024595719 -0.290757171976029 -0.009079010059025684
-0.936903059434018 -0.3467271592404244 -0.04464229237215986
-0.9134126860817445 -0.3973188131733664 -0.08840263346438937
-0.8856093491048425 -0.4425465874113751 -0.1408850550933018
-0.8520816956044063 -0.4821953135785275 -0.203579133456317
-0.8122882839106282 -0.5135407748200188 -0.2765205533387718
-0.75896479526663 -0.5417344031322838 -0.3612426829830467
-0.6741574351324129 -0.5777420039967318 -0.4601368595032636
-0.6188030625345381 -0.5446880218407916 -0.5660368615744396
0 0 0
0 0 0
0 0 0
0 0 0
0 0 0
0 0 0
0 0 0
0 0 0
0 0 0
0 0 0
0 0 0
0 0 0
0 0 0
-0.6282645856775761 0.5522516274633069 -0.5479979473935207
-0.6916697660178284 0.5761791954404172 -0.4354428429983378
-0.7432156048051106 0.5818446506636538 -0.3302837677940947
-0.7952185823709047 0.559401082291608 -0.2338756836077362
-0.8360078635446113 0.5270839132527371 -0.1525562207245413
-0.8685020289888128 0.4884383804591697 -0.08445220030726105
-0.8957786539631335 0.4436617418724451 -0.02729215826394343
-0.9190112398682844 0.3937130517847402 0.02020826192685749
-0.9388857133857935 0.3390739932935145 0.05935018342043184
-0.9556557499489425 0.2801033063043161 0.09090778507319572
-0.9692098097868707 0.2176357157108718 0.1151826369723926
-0.9793023509431164 0.1529941829788672 0.1325129631844137
-0.9857949873189942 0.08719509819467233 0.1435453162857112
-0.9886357035739273 0.02083014890587202 0.148880994473587
-0.9878025367861497 -0.04572621698496752 0.1488464356277636
-0.9832838074117477 -0.1121475748715507 0.1434429347590405
-0.9750818722207858 -0.1780447497709141 0.1323457953446923
-0.96323993785644 -0.2428057447161746 0.1149530010532333
-0.9479010511810215 -0.3054054964708466 0.09061500921651686
-0.929317657526568 -0.3645379119730693 0.05899832322741569
-0.9075796973123164 -0.4194109536372202 0.01983796853513822
-0.8823711248587626 -0.4697440857942735 -0.0275987658561701
-0.8529041562414178 -0.5151660012934409 -0.08460786829509952
-0.8178688892351487 -0.5548278028086887 -0.1525011122967514
-0.7739875197357644 -0.5885868338780955 -0.2334713221760617
-0.7181919322560689 -0.6129591468572471 -0.329365196592368
-0.6625746190215962 -0.6099009112870175 -0.4347594192650132
-0.5955235692162311 -0.5880143554245093 -0.5473488798953176
0 0 0
0 0 0
0 0 0
0 0 0
0 0 0
0 0 0
0 0 0
0 0 0
0 0 0
0 0 0
0 0 0
-0.5852379447730991 0.5970907753362175 -0.5486156705801912
-0.6540544937142585 0.6251037566957998 -0.4259788875249367
-0.7074908916549311 0.6337064435131333 -0.3128462588480898
-0.7515252647258538 0.6249128442930982 -0.21140887757198
-0.7911026433332931 0.5993547351846117 -0.1221904624872981
-0.8250028071245743 0.5631793312573516 -0.0468978579584804
-0.8540569393952292 0.5199386804147733 0.01582759866174921
-0.8794541153406232 0.4710955799805557 0.06803979374766524
-0.9018468499498817 0.417457798424199 0.111360880789869
-0.9214991357258632 0.3594691427998269 0.1470417567606029
-0.9383841705460495 0.2974985392580447 0.1758686089327255
-0.9522632754763939 0.2321404043372786 0.1982561142893049
-0.962808979393135 0.1642549756712581 0.2145207965843486
-0.9697342770285908 0.09470306510776072 0.2250483535043764
-0.9728425355624148 0.02420775761594665 0.2301985783442167
-0.9720307513585782 -0.04661807386244248 0.2301803067219977
-0.9672869929944382 -0.1171912549897578 0.2249935175459564
-0.9586950754450948 -0.1868784347812084 0.2144299487736007
-0.9464443775351027 -0.254924986990727 0.1981320045827255
-0.9308272075236795 -0.320442589044446 0.1757192558035699
-0.9121797174855476 -0.3825603441201182 0.1468868479976418
-0.8907365139465633 -0.4406969456230906 0.1112414708676666
-0.866496373097188 -0.4945278654724806 0.06801636333008655
-0.839134888892852 -0.5436890727157284 0.01596340979526603
-0.8078957588086529 -0.5874840846965713 -0.04654989932558363
-0.7714302423221421 -0.6245910618828288 -0.1215787261278928
-0.7287312780431831 -0.6516369977131288 -0.2105230334499484
-0.6809569921916133 -0.6626190561400036 -0.3118229645575857
-0.623214330842134 -0.6566720531898879 -0.4247183918696807
-0.5503006628195953 -0.6309070259415355 -0.5469236739417302
0 0 0
0 0 0
0 0 0
0 0 0
0 0 0
0 0 0
0 0 0
0 0 0
0 0 0
-0.5418292931810383 0.6199622431708284 -0.5675102061580307
-0.6071889976254439 0.6640837535451827 -0.436250260103016
-0.6600136552782763 0.6828195722471401 -0.3132720967504774
-0.7033440333960993 0.6810506710902278 -0.2036594070836322
-0.7402452776321344 0.6635611960780033 -0.1082749648019013
-0.7732514103910042 0.6335507916872535 -0.02637519063014276
-0.803031714019886 0.5944050861645724 0.04269262020502275
-0.8300794385843168 0.5485178227143066 0.1004804647894376
-0.8547952776957515 0.497175906842399 0.1487990285065078
-0.8773299958898541 0.4410341111223744 0.1891586401368044
-0.897597076865572 0.380451108308544 0.2226576784869098
-0.9153235067999579 0.3157460458315101 0.2499746235944617
-0.9301086442980691 0.2473954997939286 0.2714652399179676
-0.9415041474767121 0.1760893848069378 0.2873368560461104
-0.9491026202123229 0.1026382531821147 0.2977744201401898
-0.9526005218178654 0.02787763973092845 0.3029440262414204
-0.9518302054774204 -0.04736438294028931 0.3029453336321532
-0.9467742849955092 -0.1222564164337889 0.2977781420991303
-0.9375711825553611 -0.195943842799761 0.287343501946022
-0.9245094821513397 -0.2675469784712601 0.2714789710514611
-0.907998424826431 -0.3362074260557601 0.2500068542613986
-0.8884999763074741 -0.4011967585123538 0.2227306738210909
-0.8664301422532449 -0.4620188476161741 0.1893076676800064
-0.8420679428406146 -0.5183627492728007 0.1490692450055293
-0.8154834266886101 -0.5699142403550927 0.1009184791635259
-0.7864691969057473 -0.6161070808426206 0.04333898076804219
-0.7545080669667263 -0.6557955863434453 -0.02548971978249286
-0.7189259484319913 -0.6867796443202638 -0.1071410323755247
-0.678834621198644 -0.705876162277287 -0.2022928584769661
-0.6314934852315638 -0.7099906793588471 -0.3116556005170687
-0.5739432519901755 -0.6941584188081552 -0.4344343829540922
-0.5042070553871344 -0.6525377884986288 -0.5656586248605719
0 0 0
0 0 0
0 0 0
0 0 0
0 0 0
0 0 0
0 0 0
0 0 0
-0.5750254333778005 0.6752699469907907 -0.4619050223365477
-0.6103038241666131 0.7196704839486384 -0.3310643996879455
-0.649029837683392 0.7305828072186343 -0.2121533209572951
-0.6841951553709924 0.7211554262096984 -0.1086822920956822
-0.7158585854826953 0.6979540687156681 -0.0201644130576209
-0.7451620089698094 0.6646037055212271 0.055095326440007
-0.772765065646304 0.6234758242051672 0.1187941494702096
-0.7989497694423821 0.5760768452600838 0.1726694363897475
-0.8237503589276982 0.5232306977861269 0.2183231161850032
-0.8469942149074724 0.4653410632559707 0.2570184716339983
-0.8683362213809983 0.4026335472181271 0.2896177364947066
-0.8872984178406114 0.3353548240055311 0.3166048952776416
-0.9033181890742005 0.2639191508684835 0.3381758878048008
-0.9158127672985702 0.1889689529370719 0.3543694542124091
-0.9242550759583323 0.1113453124767909 0.365177732008268
-0.9282425020764817 0.0320224931468118 0.3705946805763064
-0.9275459223159523 -0.04794896947386997 0.3706203695446899
-0.9221373280036375 -0.1274830091139383 0.365254473880289
-0.9121969131189207 -0.2054953622323027 0.3544974580971295
-0.8980973100666695 -0.2809530630943068 0.3383586824494655
-0.8803602702453319 -0.3529452578523433 0.3168523939204316
-0.8595863410903603 -0.420762858374428 0.2899481664426715
-0.8363714190926709 -0.4839400707152983 0.2574584573887272
-0.8112304922400578 -0.5422044327992769 0.2189050970461119
-0.7845332215349672 -0.5953407799771391 0.1734271605146582
-0.7564426776508927 -0.643002689177691 0.1197581610522003
-0.7268552432215561 -0.6844800907522722 0.05628908211272294
-0.6953372811840173 -0.7184394530000949 -0.01873012996598688
-0.6609888796499152 -0.7427253980830937 -0.1070172136689212
-0.6223788289340969 -0.7539290426266474 -0.210322590271917
-0.5793310206381945 -0.7455758887207556 -0.3293814850360634
-0.5396459759254558 -0.7040541066660011 -0.4616167626442966
0 0 0
0 0 0
0 0 0
0 0 0
0 0 0
0 0 0
0 0 0
-0.4538964382527221 0.7320963850843314 -0.5079497084239211
-0.5390269084837545 0.7600023947410671 -0.3631065297103432
-0.5859443224453695 0.7754283810402567 -0.2353297194816729
-0.6219594984107824 0.7732681763424776 -0.1233803460547353
-0.6531406666638819 0.7567475359300199 -0.02721096127854955
-0.6817811578166109 0.7295110562731284 0.05466325659440038
-0.7091069597366328 0.6940436781865847 0.12438123822468
-0.7357024670477758 0.6518374042438476 0.1839833644883662
-0.7617170107803518 0.6037031684844112 0.2352226176406674
-0.7870056883052843 0.5500041094520534 0.2794951272580237
-0.8112111822778294 0.490859882901635 0.3177939475591041
-0.8338139585341539 0.4263289891295594 0.3507105296129157
-0.8541737228466461 0.356565475200656 0.3784815888431444
-0.871577322679348 0.2819392261294677 0.4010776026663867
-0.8853023921257741 0.2030990549437965 0.4183185967385601
-0.894695026913458 0.1209698486954964 0.4299850049977494
-0.8992483954607282 0.03670144233327512 0.4358960052489151
-0.8986671959471948 -0.0484060434607453 0.4359519765810015
-0.8929075571744817 -0.1329863536904685 0.4301519778785315
-0.8821866921510564 -0.2156967469440394 0.4185947366479129
-0.8669595278459679 -0.2953115034774702 0.4014626919042066
-0.8478638143956273 -0.3708118354981783 0.3789795969349389
-0.8256422844144862 -0.4414535154695886 0.3513311996768428
-0.8010578586512782 -0.5067844016521287 0.3185527857908672
-0.774816503194763 -0.566593779075792 0.2804119752964413
-0.7475004865736219 -0.6208029077988823 0.2363192168247223
-0.7195028213649629 -0.6693181319774505 0.1852806742595506
-0.690948705074424 -0.7118567004276564 0.1258964853052929
-0.6615842751745864 -0.7477463426518249 0.0564061511941398
-0.630612972616169 -0.7756867905688505 -0.0252444390944762
-0.5964924865886239 -0.7934114516290056 -0.1212228603328334
-0.5565948878814689 -0.7974242282330928 -0.2330595010100867
-0.5047690673058304 -0.7842839594714804 -0.3607032847188096
-0.4144960794098859 -0.7578316737269409 -0.5038691838662652
0 0 0
0 0 0
0 0 0
0 0 0
0 0 0
-0.3780227492121527 0.7293112489918927 -0.5702665194204993
-0.4526670830553917 0.7862254589307186 -0.4206447903484642
-0.5108761986045824 0.8132720229507409 -0.2785572228195493
-0.5521904984703291 0.819271828113495 -0.154529366331001
-0.5848175667817823 0.8097117898365214 -0.04853072205491828
-0.6133730637371866 0.7887062923779371 0.04142304968377777
-0.6401786038098883 0.7591223204342197 0.1179180132235411
-0.6663965544184313 0.7226565068196114 0.1835298488271573
-0.6925257706701395 0.6801407441395049 0.2404508788070638
-0.7186358801742241 0.6318555104008354 0.2903809320570435
-0.7444968798933154 0.577768436279301 0.3345265757282802
-0.7696548577994188 0.517719741106954 0.3736277151576212
-0.793480081928188 0.4515798146976859 0.4080012629157402
-0.8152083720954159 0.3793881794536752 0.4376070375992221
-0.8339918146195447 0.3014672281393331 0.462141930044857
-0.8489684601258718 0.2184931441179637 0.4811582896354922
-0.859350197313401 0.1315088271074198 0.4941888978621926
-0.8645169569484182 0.04187766479650457 0.5008559596728762
-0.8640992128901936 -0.04881122882164171 0.5009491134072087
-0.8580317384675828 -0.1388705514555026 0.4944658792280226
-0.8465669118398139 -0.2266576256044203 0.4816126914164184
-0.8302440998444378 -0.3107128557091372 0.4627658759789571
-0.8098209762075667 -0.3898726021402287 0.4383940471706136
-0.786181626359428 -0.4633354116586452 0.4089483423098301
-0.7602402660061442 -0.5306669546725665 0.3747363355233256
-0.7328551993705942 -0.5917431462152052 0.3358024801320205
-0.7047561139404731 -0.6466469001494842 0.2918331824700283
-0.6764766846395388 -0.695536893640222 0.2420903234836289
-0.6482770056471158 -0.7384957088727444 0.1853672353080538
-0.6200360568905438 -0.7753479755296118 0.1199616813726715
-0.5910908817915924 -0.8054216058116315 0.04367615315764492
-0.5599824113543813 -0.8272224590661229 -0.0460727923001036
-0.5239812884457951 -0.8380809739961702 -0.1518680031616746
-0.4780797604574511 -0.8339544360654138 -0.2756079483755197
-0.4140485244834722 -0.8091246468215205 -0.4169905577815982
-0.3336902853093114 -0.7542564830596566 -0.5654625993402813
0 0 0
0 0 0
0 0 0
0 0 0
-0.4045641993417229 0.7696594060528374 -0.4939151822786819
-0.4409122377529894 0.829170862122572 -0.3436161812350543
-0.479591513728724 0.8530160443611294 -0.2058047813387301
-0.5125408459080932 0.8542625540072695 -0.08681802863917512
-0.5409914463823579 0.8409150439792309 0.01378926214603493
-0.5671059266800582 0.8176991035352885 0.09878787375957442
-0.5923979724840475 0.787213716451697 0.1713452853950062
-0.6177167246650295 0.7506869472207264 0.2342971517998756
-0.6434241811625147 0.7084962538049748 0.2898937416359027
-0.6695270781321093 0.6605270128326446 0.3397610292047384
-0.6957566131327175 0.6064185594292255 0.38494060069298
-0.7216156660216855 0.5457469594078829 0.4259472817722037
-0.7464115448792026 0.4781799069314447 0.4628323479166903
-0.769290817108529 0.4036187943479388 0.4952610499136866
-0.7892907770732784 0.3223234653350238 0.5226161621319045
-0.8054166012151174 0.2350006205820309 0.5441312404311558
-0.8167435382030733 0.1428329521627475 0.5590427001401579
-0.8225312168291419 0.04743391181545032 0.5667384064552664
-0.8223280590379103 -0.04927169840625124 0.566876408977394
-0.8160415593113513 -0.1452244262078934 0.5594515524236982
-0.8039566881079245 -0.2384328517173295 0.5447966766312717
-0.7866973321727293 -0.3271638260546554 0.5235180402561016
-0.7651407711930674 -0.4100843382805326 0.4963773118859231
-0.7403061884729036 -0.4863315086244612 0.4641426623655452
-0.7132412592622476 -0.5555049533939992 0.4274355540204081
-0.6849240444155749 -0.6175940060389735 0.3865962973000948
-0.6561855057030215 -0.672862639897882 0.3415793464700735
-0.6276461860979039 -0.721712721322003 0.291874995432537
-0.5996534509578553 -0.7645320171447145 0.2364456248590115
-0.572202022628519 -0.8015137503883415 0.1736679395808178
-0.5448200511350634 -0.8324126708015253 0.1012929285303652
-0.5164062103293438 -0.8561850766707902 0.01648455093467832
-0.4850448379917338 -0.8704526575225768 -0.08392661168816352
-0.4480922393299254 -0.8706993194243909 -0.202721582980684
-0.4040542926453573 -0.8490180445369067 -0.3404533575184517
-0.3619487292593855 -0.7920630647850238 -0.4915579505926745
0 0 0
0 0 0
0 0 0
-0.2875889385407049 0.760561662963043 -0.5820984102880892
-0.3664901617489828 0.8282610326775999 -0.4238733573710902
-0.4082079174604902 0.8703168191434871 -0.2755266419759289
-0.4400120513628582 0.8864851510819954 -0.1432950507400033
-0.4671448458823326 0.8836717798240461 -0.02999797506789055
-0.4918152660065855 0.8682222069384787 0.06563492592932905
-0.5154990704737142 0.8442386239113572 0.146703286387844
-0.5391646000014382 0.8138834047658794 0.2165533134172471
-0.5633665212010808 0.7780029651441522 0.2780819106247268
-0.5883324836548592 0.7366352671957793 0.3335166739458568
-0.6140211679723514 0.6893598300851567 0.3843969692217055
-0.64015266236434 0.6355375458707825 0.4316208946012571
-0.6662227158656372 0.574493408670656 0.4755045912066301
-0.6915140551232671 0.5056795039692876 0.5158454718540714
-0.7151190517548054 0.4288344369487355 0.5520016009978305
-0.7359874999402872 0.3441336834247734 0.5830046379439385
-0.7530091104862765 0.2523070606774046 0.6077157449474175
-0.765130221185191 0.1546899477184878 0.6250174115206323
-0.7714904058306544 0.05317939183293715 0.6340145944657191
-0.7715516639023028 -0.04991485403206498 0.634205437753844
-0.7651880903588978 -0.1521053090143561 0.6255806593418228
-0.75271087577725 -0.2510008449808646 0.6086254293944153
-0.7348215962903644 -0.3445588052556685 0.5842229466103385
-0.7125075534908417 -0.4312621941081925 0.5534852357122841
-0.6869077025603828 -0.510194092606498 0.5175517327114728
-0.6591797736563304 -0.5810119873675429 0.4773961630947682
-0.6303904401894652 -0.6438472674834917 0.4336687550098261
-0.6014358647194814 -0.6991634725848695 0.3865816074675504
-0.5729874576140153 -0.7475994675150355 0.3358279464074744
-0.5454497030679762 -0.7898064055660252 0.280518204667596
-0.5189142908495743 -0.8262652081376149 0.2191204339476046
-0.4930950526539086 -0.857048981270724 0.1494132281662249
-0.4672337447913006 -0.881475946727334 0.06850389090735756
-0.439988144073058 -0.8975989892088081 -0.02695343478058735
-0.4093627595439316 -0.9015563548133688 -0.1400652354947776
-0.3726494599923102 -0.8871800722462214 -0.2721100868704219
-0.3246102254601259 -0.8474192405902388 -0.4201295421702557
-0.2393888196930994 -0.7814664640047687 -0.576197152580458
0 0 0
0 0 0
-0.3158065106137403 0.7906130469797136 -0.5245924683022296
-0.3438409839577202 0.8651434576022725 -0.3651029656397917
-0.3709001004088248 0.9025884976051801 -0.2185569022189565
-0.3948697730475951 0.9142199092539371 -0.0909935154671087
-0.4168593643172067 0.9088073907019588 0.0172452018413974
-0.4379964796791546 0.8923878742423321 0.1086414547671322
-0.459132174213644 0.8685303947991092 0.1866885103908509
-0.4808404621944403 0.8389657229757349 0.2548116276554871
-0.5034572606065086 0.8042076639154828 0.315881021972184
-0.5271118614569326 0.7640184541838055 0.3720603273368379
-0.551738354248322 0.7177255228735054 0.4247997908042156
-0.5770701669111216 0.6644435461171113 0.4748734531267123
-0.6026265856334775 0.6032545957526771 0.5224223301037296
-0.627702808599899 0.533383056014333 0.5670023806234051
-0.6513772811802494 0.4543807866531719 0.6076559374207333
-0.6725512744471132 0.3663143418012483 0.643030781712883
-0.6900320566918319 0.2699228822159943 0.6715633986407018
-0.7026608818551907 0.1667000792040189 0.691721597684978
-0.7094703500437183 0.05885449464801732 0.7022734302738282
-0.7098388826164086 -0.05087299606721484 0.7025245184312308
-0.7036012776861259 -0.1595134408802763 0.6924598935801155
-0.6910821414163857 -0.2642292122264869 0.6727469042823699
-0.6730419580650452 -0.362639785657507 0.6445982535985082
-0.6505537361479079 -0.4530392780369574 0.6095369135169336
-0.6248464991428611 -0.5344729874375449 0.5691269438433713
-0.5971541994769015 -0.6066850009953583 0.5247286647538539
-0.5685964273601463 -0.6699782369113918 0.4773125442080695
-0.5401001605209083 -0.7250342334395018 0.4273373105008293
-0.512356726894041 -0.772727696978687 0.3746765147810024
-0.4858000564599179 -0.8139483257278337 0.3185693459647307
-0.4605894691492537 -0.8494183026842658 0.2575769554400953
-0.4365817376987446 -0.8794709631837201 0.1895447472884536
-0.4132819062780845 -0.9037376527156368 0.1116078895382523
-0.3897774965872813 -0.9206844196954103 0.0203396775853767
-0.3646984269511377 -0.9269799664445744 -0.08776787105644422
-0.3363286449195039 -0.9168179356431092 -0.215239205280352
-0.3033018234195182 -0.8815173143671943 -0.3618497317689263
-0.2689020150452653 -0.8094167145660707 -0.5220500823538516
0 0 0
0 0 0
-0.2968883168942329 0.8307757989478041 -0.4708172672856706
-0.3093121459011419 0.8981646651193497 -0.3124519654748169
-0.3265802023229599 0.9297625838829708 -0.169961492879875
-0.3443833988986107 0.9376313080356589 -0.04740891007373304
-0.3620621183435628 0.9304576212366993 0.0562106532884496
-0.3799083280437137 0.9137373602713403 0.1440614408070113
-0.3983313357464567 0.8905053806062523 0.2198461145295879
-0.4176552961262954 0.8620916388043417 0.2869879090158686
-0.4380851789233565 0.828718471566382 0.3482916463143634
-0.4597001507865323 0.7899142257168343 0.4058463839644417
-0.482438909333478 0.7447889590160145 0.4610228902006548
-0.5060733265036491 0.6922332314743938 0.5144928973698752
-0.5301765280935895 0.6310928367049474 0.5662461306872915
-0.5540956885039567 0.5603560008070629 0.6156128006635667
-0.5769438847839566 0.4793684113796468 0.6613181382524976
-0.5976276476941125 0.3880648932626302 0.7016030454100557
-0.6149248341255267 0.2871774992581382 0.7344362002894022
-0.6276168529405154 0.1783569023748361 0.7578165353700695
-0.634660806068796 0.06414161780271399 0.7701243497681111
-0.6353653477282059 -0.0522611593092553 0.770441202256128
-0.6295213470744967 -0.1673594461546734 0.7587448117518243
-0.6174452238346393 -0.2778352956921514 0.7359136797420239
-0.5999212521750005 -0.3809548878898072 0.703539525955467
-0.5780637035888122 -0.4748295797901421 0.6636107479159015
-0.5531427968655916 -0.5584896880941143 0.6181604278569188
-0.5264199628100048 -0.6317959612129667 0.5689603555170571
-0.4990232674923967 -0.6952496123861268 0.5173043156384372
-0.4718726493440154 -0.7497656137883916 0.4638833120317816
-0.4456479397921997 -0.7964542333528815 0.4087279877048317
-0.4207833302700008 -0.8364274453894853 0.3511844494935767
-0.3974702565380975 -0.8706190441725339 0.2898963178304296
-0.3756526726246652 -0.89958439733722 0.2227846081249246
-0.3550052919055413 -0.9232269817575172 0.1470482331548592
-0.3349023625573332 -0.940387701016711 0.05925689267942454
-0.3144363177306929 -0.9482434125049829 -0.04431966530634827
-0.2926969796564005 -0.941523649676086 -0.1669182290843111
-0.2699561824969879 -0.9116931523045546 -0.309740626286957
-0.2514958218655611 -0.8464561399532377 -0.4693206310398365
0 0 0
0 0 0
-0.247423603311743 0.8710148290631472 -0.4243992555086886
-0.2594842739150865 0.9279057239197419 -0.2676917613744199
-0.2740139378238257 0.9529271660171266 -0.1297928277866212
-0.2885407123501444 0.9573922429027687 -0.01201459720824832
-0.3030386902904454 0.9489403044198228 0.08763475814233133
-0.3178826474123209 0.932274930679692 0.1726675305328381
-0.3334171394494596 0.9098882986384392 0.2468527802601898
-0.3498938765529025 0.8827501259780584 0.3135705506524864
-0.3674765143181419 0.8508330158115293 0.3755585049358433
-0.3862408000291161 0.8134667927554624 0.4348445946277929
-0.4061573143122508 0.7695725768238135 0.4927416006705895
-0.4270594204248302 0.717837397746906 0.5498451798664399
-0.4486031508659793 0.6568818565207951 0.6060209894111822
-0.4702292500947386 0.5854585446456699 0.6603959000907811
-0.4911416824817783 0.5026977700941896 0.7113893446427888
-0.5103209538133802 0.4083874328016031 0.7568303831300098
-0.5265897165961011 0.3032374563398543 0.7941979069777081
-0.5387390556180972 0.1890476702841291 0.8209879465082682
-0.5457039075680953 0.06869034205531421 0.8351579983291993
-0.5467511277207432 -0.05414648966210487 0.8355425554652297
-0.5416254597170127 -0.1754302208082978 0.8221107583613574
-0.5306039648928543 -0.2913522922007551 0.7959731617770459
-0.5144406491563924 -0.3988296635598141 0.759134848337444
-0.4942237690509024 -0.4958090811943064 0.714084183489858
-0.4711942450033284 -0.5813321481622286 0.663346754713424
-0.4465759349476001 -0.6554021376247662 0.6091124463697678
-0.4214510150498766 -0.7187368811892206 0.5529885509952445
-0.3966904897303897 -0.772491339395265 0.4958767850149595
-0.3729308140181803 -0.8180054816672108 0.4379379407154983
-0.3505786166243695 -0.856596662813875 0.3785984559158623
-0.3298236599235388 -0.8893844271704834 0.3165623067600947
-0.3106431229821778 -0.917112193830069 0.2498120775144324
-0.292785022871957 -0.939913361902076 0.1756126490313391
-0.2757298493739513 -0.9569583471075486 0.09057467673365505
-0.2586612476468397 -0.9659252347543988 -0.009099441215753946
-0.2405778478119517 -0.9622874015531881 -0.1269852588066111
-0.2210161217812965 -0.9385161395678935 -0.2652156286558781
-0.203152520802481 -0.8831305663153723 -0.4228586715808089
0 0 0
-0.07926475402012792 0.8286406170819258 -0.55414061978185
-0.1657642888731533 0.9067609114413256 -0.3876942739020961
-0.1978514671588138 0.9519674324148533 -0.233693826543569
-0.2153986600017055 0.9714643134567768 -0.09930007527400062
-0.2286041495560347 0.9734039576471299 0.01499593420450182
-0.2405858736377577 0.9641691289020724 0.1117869772297962
-0.2525061009736261 0.9477711146413654 0.1948604198460019
-0.2648923492283053 0.9262694320439229 0.2680615276039021
-0.2780306221247585 0.9003523784998935 0.334760463153138