# OOMMF: rectangular mesh v1.0
# Segment count: 1
# Begin: Segment
# Begin: Header
# Title: 
# Desc: time = 4.8e-10
# Desc: stepsize = 8.837204049422652e-14
# Desc: step = 3070
# meshunit: m
# valueunit: (none)
# valuemultiplier: 384000.0000000001
# xmin: 0
# ymin: 0
# zmin: 0
# xmax: 9.357999999999999e-08
# ymax: 9.357999999999999e-08
# zmax: 2.3395e-08
# ValueRangeMaxMag: 1
# ValueRangeMinMag: 0
# meshtype: rectangular
# xbase: 1.16975e-09
# ybase: 1.16975e-09
# zbase: 1.16975e-09
# xstepsize: 2.3395e-09
# ystepsize: 2.3395e-09
# zstepsize: 2.3395e-09
# xnodes: 40
# ynodes: 40
# znodes: 10
# End: Header
# Begin: Data Text
0 0 0
0 0 0
0 0 0
0 0 0
0 0 0
0 0 0
0 0 0
0 0 0
0 0 0
0 0 0
0 0 0
0 0 0
0 0 0
0 0 0
0 0 0
0 0 0
-0.8163023391347356 0.003491060133465213 -0.5776143208251531
-0.8256310088186686 0.02628630771856247 -0.5635977885900474
-0.8356098074336281 0.01066040119627432 -0.5492199974209506
-0.8405404050215056 -0.02094567460550225 -0.5413437967148076
-0.8386331588581563 -0.05712471391761658 -0.5416928944738155
-0.8299943830769324 -0.0890379379351946 -0.5506192601689393
-0.8167049414250452 -0.105134510596573 -0.5673973681059263
-0.8050999109388449 -0.08221157805427666 -0.5874141552942771
0 0 0
0 0 0
0 0 0
0 0 0
0 0 0
0 0 0
0 0 0
0 0 0
0 0 0
0 0 0
0 0 0
0 0 0
0 0 0
0 0 0
0 0 0
0 0 0
0 0 0
0 0 0
0 0 0
0 0 0
0 0 0
0 0 0
0 0 0
0 0 0
0 0 0
0 0 0
0 0 0
0 0 0
-0.7686801159786776 0.2053335342299573 -0.6057796786123161
-0.7964635629032658 0.239007401641626 -0.5554468965868414
-0.8334356520101552 0.2249860834187027 -0.5047437728455095
-0.8700357367432118 0.1792995069812037 -0.4592270719219342
-0.9017558248426327 0.09914884128110681 -0.4207207382991673
-0.9144978735418161 0.06128759032344301 -0.3999218305617258
-0.9222798573841021 0.02529044654030386 -0.3856945138025061
-0.9255536918668008 -0.01463887579915348 -0.3783332747553027
-0.9237870304586113 -0.05638549897570472 -0.378732356502215
-0.9170196532458669 -0.09649701154361477 -0.3869926127511752
-0.9058111732736105 -0.1327960989177239 -0.4023323433244197
-0.889418579881965 -0.1708507204187941 -0.4239629949572566
-0.8521796668337076 -0.2503836646240395 -0.4594538452604645
-0.8106016189985069 -0.297027525942381 -0.5046777824607964
-0.7693756025557403 -0.312430280631195 -0.5571790573385753
-0.738708357799745 -0.2797977355444343 -0.6132072971687551
0 0 0
0 0 0
0 0 0
0 0 0
0 0 0
0 0 0
0 0 0
0 0 0
0 0 0
0 0 0
0 0 0
0 0 0
0 0 0
0 0 0
0 0 0
0 0 0
0 0 0
0 0 0
0 0 0
0 0 0
0 0 0
0 0 0
-0.7482423788963072 0.2956453744019551 -0.5939083725780621
-0.7860040088291994 0.3277526126807203 -0.5241907314951199
-0.8412513085672232 0.2929241403185547 -0.4544135603748746
-0.8753159993522428 0.2746057560472563 -0.3980120350236892
-0.9054457691520947 0.2440885646444972 -0.3472588828732248
-0.9320944607311762 0.1976356115158359 -0.3035458471714257
-0.9529072159084239 0.1386541391265708 -0.2697088570527956
-0.9647020769294737 0.08764192195241771 -0.2483320283097722
-0.9711973621003327 0.03964964552446264 -0.2349544412415711
-0.9735229839211821 -0.008453649668687819 -0.2284327813263149
-0.9718113689669918 -0.05691728506784698 -0.2287861136673421
-0.9660560624129736 -0.1050443855290864 -0.2360113585062312
-0.9560626538383851 -0.1530750445051708 -0.2500244641734959
-0.9404843172830714 -0.2041082629187715 -0.2717150455033288
-0.9152493084963355 -0.2630957584052489 -0.3051218202720775
-0.8842857700234493 -0.3100562408123861 -0.3491472532719203
-0.8501312670413399 -0.3413742613853044 -0.4009244847378656
-0.8122167279893865 -0.3605563689581889 -0.4585881502807289
-0.7522716899599664 -0.3955348979707109 -0.5269150301254226
-0.7111562744588253 -0.3646815919866224 -0.6010524850326682
0 0 0
0 0 0
0 0 0
0 0 0
0 0 0
0 0 0
0 0 0
0 0 0
0 0 0
0 0 0
0 0 0
0 0 0
0 0 0
0 0 0
0 0 0
0 0 0
0 0 0
0 0 0
0 0 0
-0.7579990593142053 0.3759256687455788 -0.5330265637442176
-0.8093105123221712 0.3784160629979629 -0.4492413359319749
-0.8493552665273825 0.371282069439055 -0.3751603072491159
-0.8875270448673497 0.3423044323459791 -0.3084208492066092
-0.9170434716315232 0.308372958079442 -0.2528584383866545
-0.9415019720508497 0.2670621730494955 -0.205552505094055
-0.9618545028527858 0.217161458895647 -0.1663635059504749
-0.9774720422883291 0.1609745094464804 -0.1365123212503089
-0.9876151941839345 0.1051269977164078 -0.116466916195815
-0.9932854262295483 0.05035100083864746 -0.1041577589742134
-0.9951425042002303 -0.004035100567454317 -0.09836215886968258
-0.9934066814635903 -0.05833976233147021 -0.09868960104592388
-0.9880648536497316 -0.1125954989135108 -0.1051194492306305
-0.9788516411832681 -0.1671179316764009 -0.1179875479236004
-0.9650275106531959 -0.2226100917072374 -0.1384436735737336
-0.9455530849640967 -0.2784186446939482 -0.16855984635038
-0.9214057069815671 -0.3281051739065358 -0.2082270827667713
-0.8932550213441078 -0.369404735977336 -0.2561944727761536
-0.8599847551296389 -0.4035699879738923 -0.3123419372280431
-0.8176847091615206 -0.4330685184535314 -0.3792668911570086
-0.7736536366754052 -0.4412262932275746 -0.4547300392799815
-0.7184103351622325 -0.4387249502911078 -0.5398212744271504
0 0 0
0 0 0
0 0 0
0 0 0
0 0 0
0 0 0
0 0 0
0 0 0
0 0 0
0 0 0
0 0 0
0 0 0
0 0 0
0 0 0
0 0 0
0 0 0
-0.6582870893811131 0.4632590562094634 -0.5933373027157982
-0.7100146186327264 0.5023491237260445 -0.4934821164130455
-0.7905599282682225 0.4692054551507041 -0.3935241297218794
-0.8404376992153425 0.4444829756604255 -0.3099989646525847
-0.8772696446931886 0.4164707157849928 -0.2386422288561299
-0.9080097624683779 0.3795948794720777 -0.1772737959787007
-0.9331071669358089 0.3367649605000122 -0.1260966946135113
-0.9538603497763333 0.2883714307478211 -0.08362027895806687
-0.9708599058066978 0.2345357233691965 -0.04923451797973669
-0.9840028329571873 0.1766502725720381 -0.02308908686920547
-0.9930720843899985 0.1174004768947348 -0.004996321666166575
-0.998296350012807 0.05801974971534641 0.00617302147045804
-0.9999346538425734 -0.001240432119782823 0.01136439056388685
-0.9981151702381535 -0.06037012186513088 0.01102521321563409
-0.9928367847482605 -0.1193665241090509 0.005172211602283878
-0.9839667311358679 -0.1782296095560888 -0.006608955687426288
-0.9712455120007942 -0.2367383155118149 -0.02524134281179895
-0.9544786684866817 -0.2937338040158585 -0.05187411476125237
-0.9339709153207352 -0.3466527780062299 -0.08677661456585467
-0.9098124324957443 -0.3942096842401742 -0.1297692664980347
-0.8812809874645372 -0.4364089384954354 -0.1813589246075775
-0.8468845545238578 -0.4730157474472512 -0.242986941986281
-0.8060834871893502 -0.5012320886110485 -0.3146359881311454
-0.7515017559907607 -0.5263374193115109 -0.39776127485629
-0.6649089049132093 -0.5596132266001778 -0.4947011065090255
-0.6085903282829486 -0.5221749721519396 -0.597453856610344
0 0 0
0 0 0
0 0 0
0 0 0
0 0 0
0 0 0
0 0 0
0 0 0
0 0 0
0 0 0
0 0 0
0 0 0
0 0 0
-0.642179510644253 0.5090392835809605 -0.5731356592292
-0.7056033038135249 0.5354681415565368 -0.4641097359735372
-0.7575017696639349 0.5434807552235982 -0.3616901127451421
-0.8097536870146522 0.5225719126446242 -0.2668661883437372
-0.8506124292690821 0.4914207440728575 -0.1869870248649064
-0.8829487757027072 0.4537893215241901 -0.1203192052654311
-0.909802145095558 0.4099868531186637 -0.06458201800327908
-0.9323462718588995 0.3610934578101027 -0.0184917299773144
-0.9512922001399818 0.3076878223272982 0.01927054603058634
-0.9669263360410723 0.2502052740723701 0.0495053683609845
-0.9791864924014781 0.189554403649128 0.07254613122498534
-0.9879064895513976 0.127118904805175 0.08877810508997391
-0.993041004221297 0.06392500842248278 0.09890984396582084
-0.9946188369957684 0.0005185122058089593 0.1036006768234503
-0.9926738145738636 -0.06281106575631998 0.1032156377586715
-0.9872206713362899 -0.1258434743580317 0.09776894214332064
-0.9782574920529793 -0.1882998430769504 0.08692208200112542
-0.9657961450888559 -0.2496656354505949 0.07003482424162676
-0.949935477752525 -0.3089813413549462 0.04640171119236472
-0.9308895477001823 -0.3649662444318458 0.01562979231670995
-0.9087032719210757 -0.416830824560586 -0.02259263809458476
-0.8829942077247859 -0.4642806716391957 -0.06902671270410017
-0.852894398419066 -0.506904453060001 -0.1249760801646468
-0.8170305383497742 -0.5437825238587009 -0.1917333203951233
-0.7720408842227592 -0.5747023489152384 -0.2714223337160132
-0.7148332683894448 -0.5960322443056769 -0.3657307235543671
-0.6579306618824191 -0.5892881561392285 -0.46889947023748
-0.5897726754923612 -0.5634792416173223 -0.5784974809875568
0 0 0
0 0 0
0 0 0
0 0 0
0 0 0
0 0 0
0 0 0
0 0 0
0 0 0
0 0 0
0 0 0
-0.6045279396316181 0.5544219631387717 -0.5719809935601886
-0.6733537037589128 0.5845975482786401 -0.452593080129112
-0.7271897694913629 0.5951181357745083 -0.342095664426446
-0.7717068956594588 0.5878427219623419 -0.2427125901710607
-0.8116160812211779 0.5632333847387986 -0.1550725347018431
-0.8455986358118228 0.5275997461054541 -0.08124933859819479
-0.8744414732748175 0.4847164151767595 -0.02005259771594147
-0.8993141100782776 0.4362361012151578 0.0305318753225795
-0.9208738706165825 0.3831280406111678 0.072140272477171
-0.9394123941607102 0.3259662615405622 0.1060676672436584
-0.9549479057468022 0.2652218816571728 0.1331609957909021
-0.9673070548016585 0.2015669044968675 0.1539085596790881
-0.9762507957829825 0.1359058136397553 0.1687127545623298
-0.9815929762468896 0.06909146135351063 0.1780494283922554
-0.983230928043173 0.001783118085720367 0.1823561422855081
-0.9811333342696743 -0.0655155558141752 0.1818930793934468
-0.9753290460365726 -0.1323572118519999 0.1766771644218731
-0.9659091127374311 -0.19825145313909 0.1664810717740223
-0.9530402963586551 -0.2625732483284991 0.1508956022514464
-0.9369718162714442 -0.3245343867244321 0.1294652360534947
-0.9179860179170176 -0.3833254640236431 0.1018000959720324
-0.8962520977818288 -0.4383903235857117 0.06742478333732717
-0.8716903652572432 -0.4893930595086362 0.02550177292796592
-0.8438916942982169 -0.5359181768928778 -0.02526887354628912
-0.8120225914232164 -0.5771743554357303 -0.08653943867204519
-0.7746692010772449 -0.6117038265963555 -0.1603310869099262
-0.7308217016639863 -0.6359507969222707 -0.2479238275577472
-0.6817844378394109 -0.6437294855373464 -0.3475375228228184
-0.6227508411107718 -0.6342275259178408 -0.4581886459352305
-0.5486785212103943 -0.6046496813951698 -0.577365259736931
0 0 0
0 0 0
0 0 0
0 0 0
0 0 0
0 0 0
0 0 0
0 0 0
0 0 0
-0.5662205330795667 0.5778238265379659 -0.5878043325836529
-0.6314840328348071 0.6240417501917348 -0.4602171338534932
-0.6847603893178437 0.6445681313915821 -0.3400516625685552
-0.7287386353110671 0.6440765681975411 -0.2326056226832045
-0.7662608300152053 0.6273139085760964 -0.1390021600241852
-0.7997049517137576 0.5975152799219153 -0.0587152489931812
-0.8296460780003034 0.5582219757580965 0.008695460852693399
-0.8565236590458859 0.5120408510477444 0.06466365557983693
-0.8807114443225753 0.4604703718921557 0.1109702142412207
-0.9023582990198015 0.4043543127993201 0.1491545839412241
-0.921401737865791 0.3442108090857458 0.1803822506967791
-0.9376185813707014 0.2804854123601095 0.2054247534295033
-0.9506844799990062 0.2137440470320799 0.2247498650664032
-0.9602521205819948 0.1447174991887124 0.2386895689935909
-0.9660292458216974 0.07419640734319341 0.2475528011445733
-0.9678239680007841 0.00293177979962192 0.2516111516416216
-0.965559376030263 -0.06838672294673885 0.2510345543638453
-0.9592756538241597 -0.1391010499240788 0.2458477534781419
-0.9491305258961145 -0.2085401241743376 0.2359285091325676
-0.9353955662070513 -0.2759947794314035 0.2210475434081998
-0.9184343882805263 -0.3407437955916479 0.200927698910758
-0.8986434177016154 -0.4021512194284118 0.1752552553671379
-0.8763594311246365 -0.4597636751226604 0.1435670941288687
-0.8517740213517112 -0.5132626557091923 0.1050831233104577
-0.8248703098413248 -0.56227504768542 0.05861520871441771
-0.7953643815438696 -0.6061260538098462 0.002589877263603491
-0.7626830476851654 -0.6435163369681813 -0.06481738060675411
-0.7261382179703831 -0.6720617401542357 -0.1451079109616576
-0.6848891773127336 -0.6884056127786846 -0.2387980885490714
-0.6362604769976499 -0.6893504909005568 -0.3463647010101975
-0.577433775331508 -0.6698912958282356 -0.4667074960614712
-0.5067146835535303 -0.6242814887980517 -0.5945694679474661
0 0 0
0 0 0
0 0 0
0 0 0
0 0 0
0 0 0
0 0 0
0 0 0
-0.6037311889315036 0.635420573689135 -0.4814035168586984
-0.63956747502349 0.6820188730410451 -0.3546881753144577
-0.679145843165934 0.6942400078077579 -0.2383101661060986
-0.7152370807874454 0.685370199579646 -0.1367611340798559
-0.7477459686674074 0.6621018486578757 -0.04997107508812945
-0.7776964667516182 0.6281997808751962 0.02352107375108587
-0.8056561362554872 0.586215894395559 0.0852591066801316
-0.8318381082965415 0.5378694793020619 0.1369006384972679
-0.8562317160303031 0.48420476771972 0.18003608355353
-0.8786467157717794 0.4258353600055286 0.2159726719574195
-0.898752023570526 0.363174006554158 0.2456612323735353
-0.916117955737295 0.2966218048427512 0.2697098368016034
-0.9302652201019871 0.2267017740194777 0.2884665074580104
-0.9407253407170998 0.1541045356443563 0.3021384209704767
-0.9471047212791424 0.07964435519328493 0.3108849041311001
-0.9491345731926556 0.004190542365080397 0.3148428200310137
-0.9466995447510435 -0.07137977819977584 0.3141096929932557
-0.9398490954598495 -0.1461988372508594 0.3087224931063472
-0.9287959869991291 -0.2194164360806529 0.2986543857236619
-0.9139008813421651 -0.290218169761863 0.283828457033624
-0.8956362575347472 -0.3578716990909798 0.2641278879234198
-0.8745272736370947 -0.4217893806487837 0.2393653400908013
-0.8510793986993374 -0.4815636385457978 0.2091896726420921
-0.8257132804319905 -0.5369163796879843 0.1729693028863454
-0.7987104704008969 -0.5875677053122575 0.1297142094994433
-0.770161403831259 -0.6330536828102349 0.07806693748996489
-0.7399119836641757 -0.6725042391608517 0.01638001040378616
-0.7075077895095732 -0.7043977315664163 -0.05706630833831473
-0.6720611355061034 -0.7263837155604312 -0.1438767803047775
-0.632183815802652 -0.7348662871202355 -0.245591455656172
-0.5878216571440205 -0.7231847139799926 -0.3625873258376983
-0.5470966958932061 -0.6774982480810383 -0.4916109530816622
0 0 0
0 0 0
0 0 0
0 0 0
0 0 0
0 0 0
0 0 0
-0.4871547177709659 0.6955337659252966 -0.5281222031038506
-0.5724504864567836 0.7242557519593389 -0.3843878852268937
-0.6202623423638992 0.7405329702898442 -0.2586224015025559
-0.6574581676935266 0.7387101210227149 -0.1485130123311611
-0.6898904580781656 0.7218923796686818 -0.05406059589928332
-0.7197100219959448 0.6937865957231216 0.02603159298848442
-0.7480259927572438 0.6570151524904642 0.09374541886124978
-0.7753187444793023 0.6132502428581283 0.1510131917862957
-0.8016478934014794 0.563513109214999 0.1995335328906256
-0.8267994353499765 0.5083941698027195 0.2407032650704249
-0.8503758892668963 0.4482427996968782 0.2755707522097347
-0.8718543219147985 0.3833352592879471 0.304834578657226
-0.8906339405327629 0.3140136652019356 0.3288869137523246
-0.9060860930664927 0.2407860810162374 0.3478937411629307
-0.9176137448396919 0.1643662034317786 0.3618960713391338
-0.9247159118368331 0.08565239321435893 0.3708964140193681
-0.9270449888052654 0.005669187598391889 0.3749072539215782
-0.9244465794030617 -0.07449572315619515 0.3739637804138439
-0.9169779659026744 -0.1537488166296465 0.3681205121070769
-0.9049051202399933 -0.2310412723509157 0.3574446164567493
-0.8886774707899389 -0.3054232499891754 0.3420072971099392
-0.8688812784924252 -0.3760997267155716 0.3218607143623471
-0.8461757925851842 -0.4424779104472923 0.296984556516046
-0.8212248401976306 -0.504176408705995 0.2672001323852604
-0.7946345403733102 -0.5609784861811759 0.2320756025254999
-0.7668991390646938 -0.6127319715889162 0.1908539795094418
-0.738343371765406 -0.6592162056471682 0.142418606868067
-0.7090481313634919 -0.6999816868702359 0.08530173184782866
-0.67873945500441 -0.7341649013212909 0.01773837332494361
-0.6466230072618404 -0.7602647933304624 -0.06225857773706871
-0.6111793651797847 -0.7758230071389148 -0.1567113434706186
-0.5698344336801308 -0.7771993660532018 -0.266926700798075
-0.5165133106708669 -0.7609583598410001 -0.392627526401187
-0.4246242972075576 -0.7313367752477989 -0.5337047192888009
0 0 0
0 0 0
0 0 0
0 0 0
0 0 0
-0.4155877186587937 0.6945025452323597 -0.5873270492372651
-0.490140657985268 0.7526412737743917 -0.4396512804496635
-0.5490148512674832 0.7804597621965761 -0.2991074266543824
-0.5915627643153333 0.7866775120109992 -0.1766125362815023
-0.6257363377443319 0.7766902542934507 -0.07215458760110664
-0.6559594347221949 0.754623530501715 0.01614147490363839
-0.6844055680332739 0.7234346269154072 0.09072683740116068
-0.712105892915586 0.6849602604863244 0.1540605037944565
-0.7394353753209992 0.6402086774316006 0.208250270264346
-0.7663488064184486 0.5896689685897112 0.2549510038877359
-0.7925186681621331 0.533543916343631 0.2953727305409529
-0.8174217475205762 0.4719257256170548 0.3303146926511491
-0.8403991181263536 0.4049370646044329 0.3602156242613463
-0.8607075064929149 0.3328475500496286 0.3852208414568299
-0.87757570967496 0.2561572922253603 0.4052706693411963
-0.8902716821662205 0.1756360261349085 0.4202003310998995
-0.8981769940090373 0.09230791855690572 0.4298340791568076
-0.900856953210356 0.00739402794283227 0.4340530822414864
-0.8981132856945361 -0.07777262237836645 0.4328324678987887
-0.8900102321413275 -0.1618398225295836 0.4262506991517226
-0.8768696726883001 -0.2435301632258732 0.4144787530365004
-0.8592363854112401 -0.3217256562980919 0.3977504695974452
-0.8378181004952769 -0.3955377952491169 0.3763119490687921
-0.8134115576793628 -0.4643466700623543 0.350348123779242
-0.7868267019149424 -0.527799441809083 0.3198929358077072
-0.7588198223771898 -0.5857607825630349 0.2847398510545904
-0.7300344975812273 -0.6382274456897079 0.244367264398723
-0.7009423110629225 -0.6852165642863405 0.1978841494142274
-0.6717668528192255 -0.7266332092894743 0.1439912310213063
-0.6423740799022171 -0.7621034037379841 0.08095642952081311
-0.6121066417959137 -0.7907475463286563 0.006616422336710916
-0.5795270634017463 -0.8108664932432047 -0.08151020132729137
-0.5419465117831413 -0.819609768162237 -0.1858327374256987
-0.4944250297049474 -0.8128173040119758 -0.3080128573614496
-0.4288471577493186 -0.7847675986075607 -0.4474705928505837
-0.3473989296725206 -0.7262003812500076 -0.593251203062185
0 0 0
0 0 0
0 0 0
0 0 0
-0.4455651518820419 0.7372757461293248 -0.5078347857303394
-0.48241318262289 0.7982761646120482 -0.3606004523623506
-0.5222488016453705 0.8226961298547394 -0.2245601636577773
-0.5568694555718152 0.8236780532288562 -0.1070087570261004
-0.5873387415856434 0.8093029914584962 -0.007865789783710728
-0.6156579813476566 0.7843940708538432 0.07543998682571218
-0.6431907499192723 0.7516705706907384 0.1459349594022726
-0.6706408514812687 0.7125043010562119 0.2063455095243831
-0.698225948390323 0.6674450657326177 0.2588389638822081
-0.7258121085035663 0.6165851588671782 0.3049910244816119
-0.7530016068174896 0.5598080040092756 0.3458375034281691
-0.7791928997266476 0.4969650456971064 0.3819478608015116
-0.8036284375119863 0.4280154216903791 0.4135022771609003
-0.8254446709249253 0.3531399318516151 0.4403785687036527
-0.8437342947035477 0.2728278853184328 0.4622525120902843
-0.8576252020997716 0.1879204294225965 0.4787117346890007
-0.8663709604252049 0.09960092700935394 0.4893679743003058
-0.8694393628361162 0.009327985889472675 0.4939515998864397
-0.866581735817849 -0.08127410701991336 0.4923724349260816
-0.8578680113027733 -0.1705517443347525 0.4847417639195094
-0.8436803832963383 -0.2569594908179108 0.4713546763526837
-0.8246665627713302 -0.3391815581469741 0.452637747939685
-0.8016635211417239 -0.4162159761617423 0.4290685959824838
-0.7756065621597151 -0.4874131243528197 0.4010771832745039
-0.7474410541154577 -0.5524613268340349 0.3689422081783957
-0.7180461634997647 -0.6113293892718845 0.3326951831567953
-0.6881731152079288 -0.6641764063461831 0.2920401766163076
-0.6583890727148322 -0.7112433842836627 0.2462857633774741
-0.6290154953140495 -0.7527242525703753 0.1942825423119385
-0.6000446375420389 -0.7886022579089106 0.1343611245041165
-0.5710207205331614 -0.8184144882933615 0.06428889541206856
-0.5408731587550017 -0.8408964961430749 -0.01868980772200739
-0.5077339377488373 -0.8534515221750801 -0.1175871921388449
-0.4690363063264352 -0.8513618917972211 -0.2349209921295038
-0.4234331774246239 -0.826562694389011 -0.3708078430945938
-0.3802852123069628 -0.7655992366501146 -0.5188843475586918
0 0 0
0 0 0
0 0 0
-0.3323427615356154 0.7320801307224388 -0.5946486114137468
-0.4109918600536603 0.7999683055710427 -0.4371914924280055
-0.4535645299082974 0.8425289468388862 -0.2905584122816298
-0.4869737537086568 0.8586763374845017 -0.1597858274162703
-0.5162800962852317 0.8550837899247078 -0.04781813868930092
-0.5435412318979096 0.838100411894363 0.0463748726079243
-0.5700827193042294 0.811913987944207 0.1257034976889223
-0.5967213029947221 0.7788012806121277 0.1933707627051985
-0.6238562285974765 0.7397431559258481 0.2521576278858109
-0.6515543246084836 0.6949398090186053 0.3041966862494835
-0.6796097286633934 0.6441728888921324 0.3509585529979751
-0.7075814559531223 0.5870533090969149 0.3933152621874993
-0.7348203829281428 0.5232039601976652 0.4316209226471963
-0.7604985381516237 0.4524084326179046 0.4657988659984625
-0.783651933557991 0.3747406818690117 0.4954382589013182
-0.8032463187913779 0.290667611415538 0.5199112337910052
-0.8182685013781672 0.2011093595631049 0.5385087605122554
-0.8278365477267424 0.1074344454184467 0.5505855884288102
-0.8313115671059712 0.01138296681287109 0.5556901172977171
-0.8283876039595465 -0.08507860139300807 0.5536565805543817
-0.8191384027263529 -0.1799426110789568 0.5446401875523014
-0.8040089980562205 -0.2713534633092877 0.5290905678564749
-0.7837553941449386 -0.3577684257334382 0.5076704006507853
-0.75934704010197 -0.4380629035055689 0.4811371584700638
-0.7318554568838149 -0.5115646979824021 0.450210117620157
-0.7023489113411809 -0.5780254326240785 0.4154426626835577
-0.6718075646335437 -0.6375418469938443 0.3771140270963462
-0.6410602296418954 -0.690450182409137 0.3351422497726436
-0.6107380103608216 -0.737204682925187 0.2890126955233609
-0.5812320416783777 -0.7782438043464353 0.2377096857992355
-0.5526440078243873 -0.8138251381852744 0.1796475579391967
-0.5247155327982002 -0.8437959532654508 0.1126143813780012
-0.4967305184926677 -0.8672468510387867 0.03378892364833475
-0.4674028123657309 -0.8820038918387189 -0.06003120666751825
-0.4348130359539799 -0.8839976300493405 -0.1717143378743648
-0.3963620536119146 -0.8669343599888537 -0.3021951983855162
-0.346958238511766 -0.8238661061024799 -0.4481792274797542
-0.2607788801319098 -0.7546193474452033 -0.6021162812435168
0 0 0
0 0 0
-0.3630659452445922 0.764543006002757 -0.5325946970970689
-0.3914204219812489 0.8399727868651009 -0.3758134784465511
-0.4197774152909808 0.8777345611631207 -0.2310172325853785
-0.4458436663523109 0.8889560333325373 -0.1047883389276188
-0.4705724752827255 0.8823585923837504 0.002204530075624503
-0.4949509760390616 0.8640153543460615 0.09220086101674593
-0.5196884429571361 0.8375724356106107 0.1685121282344282
-0.5452102815966365 0.8048565179328739 0.2344178627628131
-0.5716941404583176 0.766495490968245 0.2926610190834676
-0.5990986696881154 0.7223957718163795 0.3452899257721649
-0.6271746788513634 0.6720746537192145 0.3936592206920682
-0.6554640900376209 0.6148963343032773 0.4384852617039088
-0.6832979871346614 0.5502567329990766 0.4799181061044713
-0.7098055445049254 0.4777490259872082 0.5176214419422166
-0.7339463203562755 0.3973173340059692 0.5508736106711518
-0.7545757265288435 0.3093904893953205 0.5786994021123498
-0.7705473369264705 0.2149670839956924 0.6000382940728971
-0.7808438877173425 0.1156241443423275 0.6139331236051452
-0.7847153426220478 0.01342535827136552 0.6197108929241496
-0.7817932708931934 -0.08926417189808065 0.6171152154998865
-0.7721513072181128 -0.1900279655445785 0.6063594075070887
-0.756295566317287 -0.2866552339986258 0.5880865524648616
-0.7350880359509532 -0.3773531030279632 0.5632496915551191
-0.7096257977252645 -0.4608714323591833 0.5329434773388041
-0.6811053705637425 -0.536533103520184 0.4982245507963509
-0.6507006325719535 -0.6041797335438975 0.459951667401352
-0.6194691375080045 -0.6640643804039805 0.4186603472431633
-0.5882915931079638 -0.7167167343573747 0.3744731287697343
-0.5578363141825434 -0.7628030547270876 0.3270323321603807
-0.5285383955416781 -0.8029812733191372 0.2754418979331305
-0.5005786780813752 -0.8377389533647966 0.2182073167094931
-0.4738516537221924 -0.8671788795713664 0.1531842063990027
-0.4479124426761624 -0.8907054641595122 0.07757718615843524
-0.421910372903625 -0.9065593822405865 -0.01190477668373446
-0.3945523509483357 -0.9111942142964055 -0.1185476536836421
-0.3642274354217508 -0.8986316330821892 -0.2445394923322846
-0.3297285274366353 -0.8601237492630978 -0.3891866315125161
-0.2945851896023202 -0.7840920762676622 -0.5462775686418317
0 0 0
0 0 0
-0.346361537512583 0.8082822645866971 -0.4761443752545222
-0.3595305283788375 0.876378665087868 -0.3204656526719203
-0.3785773696065855 0.9079849078899399 -0.1795621960933184
-0.3990056350833124 0.915100802497851 -0.05818096286201371
-0.4200239589073452 0.9064301594263904 0.04431974758556791
-0.4418016252472932 0.8875148199093166 0.1308769206933866
-0.4646197937806835 0.8614481657405922 0.2050256202755253
-0.4886641885922093 0.8296281216240876 0.270045349150851
-0.5139870943424601 0.7923620409950833 0.3286025910419765
-0.5404960868761428 0.7492951879566603 0.3826495803951309
-0.5679355687458227 0.6997058249181742 0.433429288729933
-0.5958609392955566 0.6427220626902126 0.4815164495145053
-0.6236144815184268 0.5775084638030239 0.526867111021721
-0.6503159172314755 0.5034487525163134 0.568883609699868
-0.6748818345666309 0.4203332709038385 0.6065100582375021
-0.6960871952904208 0.328531737858985 0.638380383292023
-0.7126749528497311 0.2291171390301447 0.6630231882696671
-0.7235060123764866 0.1238916651006501 0.6791096416438683
-0.7277241973840143 0.01528357139326666 0.6856995734191895
-0.7248967034428518 -0.09389037606618919 0.6824290194736995
-0.7150907386836225 -0.2007498110344976 0.6695855052332926
-0.6988628950539277 -0.3026898831531776 0.6480505293212543
-0.6771668236822975 -0.3976494486533669 0.6191284268144217
-0.651207460422068 -0.4842602089792863 0.5843123252935694
-0.62228235900655 -0.561863183213596 0.5450453458367733
-0.5916427801561029 -0.6304225823132736 0.5025198388109873
-0.5603949335546674 -0.6903762559547917 0.4575348551313915
-0.529442762672531 -0.7424667136433266 0.4104065547543749
-0.4994652156061727 -0.787575194505673 0.3609152412947254
-0.4709122930523307 -0.8265675482513317 0.3082656329044442
-0.4440064652851457 -0.8601357097804398 0.2510474448097192
-0.4187346141844939 -0.8886052733613151 0.1871950614685785
-0.3948240879290316 -0.9116595007909256 0.1139776039783605
-0.3717101734431774 -0.9279236566036818 0.02809331724973853
-0.3485575708173642 -0.9343629825724513 -0.07398267786590686
-0.3245507371674192 -0.9255137704849059 -0.1951693614451231
-0.3001103087474079 -0.8927021598877631 -0.3361795001413042
-0.2807905767866596 -0.8236059280933082 -0.492777766541242
0 0 0
0 0 0
-0.2988849070026484 0.8529042933090729 -0.4280444822923996
-0.3120081515751926 0.9099598013655668 -0.2731740713343218
-0.3287375403027004 0.9345217388979926 -0.1363845633596477
-0.3463836371362594 0.9378903834970282 -0.01949370329240888
-0.3647989241198639 0.9277077770420449 0.07924661113698676
-0.3842495910133897 0.9086927620623936 0.1631861390604617
-0.4049670806449434 0.8833603011407583 0.2359581360377724
-0.4270797600110724 0.8527115297220484 0.3008087858889232
-0.4506119364401791 0.8167676217808595 0.3603325335687442
-0.4754761349061538 0.7749400293261137 0.4164017243993431
-0.501447739815143 0.7262851328435059 0.4701702564441681
-0.5281277519609316 0.6697018888427252 0.5220923842474414
-0.554904721635367 0.6041172338241372 0.5719467787333434
-0.5809300725474866 0.5286892642380413 0.618876330690882
-0.6051239365309283 0.4430306487458099 0.6614747657387841
-0.6262285329914443 0.3474317240053895 0.6979462884936246
-0.6429192993879743 0.2430300344865639 0.7263547183105062
-0.6539683966759641 0.1318647770943465 0.7449409484723784
-0.6584326135369736 0.01675951225955983 0.7524530631073882
-0.6558190944828912 -0.09897145507083288 0.7484022757800795
-0.6461782661288193 -0.2119412047044515 0.733167493913347
-0.6300947545877559 -0.3191211645786641 0.7079140361364168
-0.6085808962592466 -0.4181769189662596 0.6743569953312401
-0.5829103262729458 -0.5076362862461911 0.6344453896203696
-0.5544387924204111 -0.5868881998810784 0.5900507319711948
-0.5244536780617772 -0.6560509017587469 0.5427205117452333
-0.4940717910673947 -0.7157747387317591 0.4935175667237571
-0.4641884434978465 -0.7670303164280569 0.4429374477319805
-0.4354647105059755 -0.8109176734901028 0.3908746764953511
-0.4083374271546683 -0.8485011820424001 0.3366099963716986
-0.3830331075706257 -0.880658486006376 0.2787943140197563
-0.3595723525488018 -0.907909371158772 0.2154258504557947
-0.3377523682863461 -0.9301795885343611 0.1438376542877776
-0.3171085505180728 -0.9464410118975191 0.06075835898644807
-0.2968858937903733 -0.9541790528178142 -0.03743128680648521
-0.276157416350417 -0.9486878216796303 -0.154040573847995
-0.254572209737269 -0.9222953956365034 -0.2907992318029551
-0.2355581690399131 -0.8634235507937315 -0.4461077458790731
0 0 0
-0.1325657801205785 0.8177552441534646 -0.5600916662480608
-0.2189786272784489 0.8940571371464483 -0.3907815199222481
-0.2523534970099285 0.9382448052902468 -0.2366736104696215
-0.2724037686797263 0.9566876958718553 -0.1026880683257902
-0.2891353175271495 0.9572240922209603 0.01108176115210089
-0.3055397487921629 0.9461205064741386 0.1072448093715535
-0.3226748866604442 0.9273416937073877 0.1895212405789454
-0.3409675204906007 0.9029253715270094 0.261661849384474
-0.3605977500460826 0.8735512578055538 0.3269211872118985