# OOMMF: rectangular mesh v1.0
# Segment count: 1
# Begin: Segment
# Begin: Header
# Title: 
# Desc: time = 2.7999999999999996e-10
# Desc: stepsize = 9.322877040983594e-14
# Desc: step = 1790
# meshunit: m
# valueunit: (none)
# valuemultiplier: 384000.0000000002
# xmin: 0
# ymin: 0
# zmin: 0
# xmax: 9.357999999999999e-08
# ymax: 9.357999999999999e-08
# zmax: 2.3395e-08
# ValueRangeMaxMag: 0.9999999999999999
# ValueRangeMinMag: 0
# meshtype: rectangular
# xbase: 1.16975e-09
# ybase: 1.16975e-09
# zbase: 1.16975e-09
# xstepsize: 2.3395e-09
# ystepsize: 2.3395e-09
# zstepsize: 2.3395e-09
# xnodes: 40
# ynodes: 40
# znodes: 10
# End: Header
# Begin: Data Text
0 0 0
0 0 0
0 0 0
0 0 0
0 0 0
0 0 0
0 0 0
0 0 0
0 0 0
0 0 0
0 0 0
0 0 0
0 0 0
0 0 0
0 0 0
0 0 0
-0.8037648389104641 0.06720571504891309 -0.5911391338728973
-0.8155590984666842 0.09240492364835316 -0.5712483584166786
-0.8291375247170883 0.07860057211773394 -0.5534915673872398
-0.8382583819252077 0.04848048279777092 -0.5431137338714852
-0.8408611506843672 0.01344696048698532 -0.5410838239343535
-0.8368231004249536 -0.01773332548354246 -0.5471860997525994
-0.827867318686402 -0.03368269992803926 -0.5599117594554915
-0.8194968590810966 -0.01180113874448631 -0.5729621550159745
0 0 0
0 0 0
0 0 0
0 0 0
0 0 0
0 0 0
0 0 0
0 0 0
0 0 0
0 0 0
0 0 0
0 0 0
0 0 0
0 0 0
0 0 0
0 0 0
0 0 0
0 0 0
0 0 0
0 0 0
0 0 0
0 0 0
0 0 0
0 0 0
0 0 0
0 0 0
0 0 0
0 0 0
-0.7411582639136072 0.2587935667327484 -0.6194435548541201
-0.7708128016390888 0.2952301953382947 -0.5645234774478473
-0.8107635461115632 0.2837151934690403 -0.5120235944675079
-0.8512321993524088 0.2405326647436888 -0.4664201753536826
-0.8881357174578491 0.1630315964728827 -0.4296925015951917
-0.9044790074742314 0.1277390666211401 -0.406940359140241
-0.9159327006415739 0.09384635901799521 -0.3902052649497408
-0.9231966479127975 0.05557399164848992 -0.3802886807871445
-0.9256748188104402 0.01503111654740753 -0.3780214218210337
-0.9232820932035626 -0.02438841540739109 -0.3833475988754374
-0.9164936218329987 -0.06061128322525372 -0.3954310477001264
-0.9048297243854931 -0.09927729324523267 -0.4140376660575357
-0.8747286041334722 -0.1794558987268472 -0.4501615815713795
-0.8392208756728574 -0.227384392284549 -0.4939682783137676
-0.8031595634043038 -0.2446981786921535 -0.5431919707220918
-0.7760967813582985 -0.2149506678692205 -0.5928490502209346
0 0 0
0 0 0
0 0 0
0 0 0
0 0 0
0 0 0
0 0 0
0 0 0
0 0 0
0 0 0
0 0 0
0 0 0
0 0 0
0 0 0
0 0 0
0 0 0
0 0 0
0 0 0
0 0 0
0 0 0
0 0 0
0 0 0
-0.7152831816459612 0.3421112448370917 -0.6093684158294105
-0.7549013590397157 0.3773660404292003 -0.5363942669816448
-0.8136643343666164 0.3459585009528922 -0.4671863296353582
-0.8503032998779138 0.3309696476545916 -0.4091984732964256
-0.8833750560215973 0.3035585490197223 -0.3570724264289802
-0.9135881724705152 0.2601712749066065 -0.3125180936129206
-0.9385720189993834 0.2043081363971244 -0.278102050609761
-0.954214691077101 0.1562013006884324 -0.2550989553014156
-0.9645692031428615 0.1106435026098615 -0.2395083874910556
-0.9709438164641538 0.06442803208162236 -0.2304715469469324
-0.973486995357988 0.01726393405173798 -0.2280899525405116
-0.9721552201176569 -0.03020618394101546 -0.2323829048138232
-0.9667714161315429 -0.07828171652226808 -0.2433618741901397
-0.9561985508888166 -0.1300636486686527 -0.2622361122597789
-0.9368006192971868 -0.1903032045554804 -0.2935801253837207
-0.9113751165872868 -0.2390189251772295 -0.335060218875101
-0.8823100017586066 -0.272700436626895 -0.3836189941337987
-0.8493014137738899 -0.2950103047036319 -0.4377853682803263
-0.7960069446503288 -0.3335551934895764 -0.5050879893291648
-0.7589666123483367 -0.307041058423018 -0.57419114394334
0 0 0
0 0 0
0 0 0
0 0 0
0 0 0
0 0 0
0 0 0
0 0 0
0 0 0
0 0 0
0 0 0
0 0 0
0 0 0
0 0 0
0 0 0
0 0 0
0 0 0
0 0 0
0 0 0
-0.7230605515637131 0.4183419295397764 -0.5497030732689373
-0.7768428888623855 0.4245688453681044 -0.4650337854035308
-0.8189844554984427 0.4212532254177114 -0.3896282609450873
-0.8597763751303369 0.3962312252409672 -0.3221574163538363
-0.8918577647005987 0.3662479636256598 -0.2654282514792046
-0.9191740845500427 0.328773335607859 -0.2168573173422372
-0.9428643032278058 0.2826277568434052 -0.1764325841799307
-0.9622739250960108 0.2300842775321219 -0.1452243723100122
-0.9763484071026761 0.1775616292065806 -0.1233517562970669
-0.9861010589078162 0.125583483410808 -0.1087818473610834
-0.9922403124890034 0.07334516905229831 -0.1003974524000184
-0.9949875782737969 0.02046052944971525 -0.09788302107864021
-0.9943052737925894 -0.03316172631908886 -0.1012784400342972
-0.9899272393336456 -0.08787296200283107 -0.1110063213250261
-0.9811662358507753 -0.1443588395943371 -0.1283485218356494
-0.9669963192870544 -0.2018650645826646 -0.1554625813060005
-0.9479940776826561 -0.2538786598525666 -0.1919709737175753
-0.9247416616232949 -0.2981509878010878 -0.2365562253068437
-0.8963340150273502 -0.3359837341353458 -0.2893099789178005
-0.8593294995101441 -0.3697648757336922 -0.3533082902300643
-0.8200658898055339 -0.3828192455495396 -0.4253720273059083
-0.7701874077201105 -0.3857526772443078 -0.5079431355852976
0 0 0
0 0 0
0 0 0
0 0 0
0 0 0
0 0 0
0 0 0
0 0 0
0 0 0
0 0 0
0 0 0
0 0 0
0 0 0
0 0 0
0 0 0
0 0 0
-0.6177107069144934 0.4984246109451554 -0.6082815053635663
-0.6712351514306816 0.5407491002231304 -0.5069849919787603
-0.7553414164938683 0.5115418193371469 -0.4096148332254063
-0.8076195696604164 0.491202768861115 -0.3262981314146571
-0.8464912163999251 0.4677318748659789 -0.2543216738544524
-0.879436089135134 0.4355222706541043 -0.1921263045264557
-0.9069266894172585 0.3973956468963623 -0.1398595003940473
-0.9304277794976636 0.3536518875045817 -0.09609625176609536
-0.9506541384856426 0.304347648736263 -0.06024298871095438
-0.9675078480683034 0.2507602833679872 -0.03237042186080431
-0.9806525701130702 0.1953770035134334 -0.01218044452147423
-0.9902587914057327 0.1392314153194666 0.001462542920552889
-0.9965525210468656 0.08242366609353942 0.009455795198492852
-0.9996167259466036 0.02485762651492727 0.01218604168037919
-0.9993914652463129 -0.03353263326215884 0.009605295379739713
-0.9956863454457439 -0.09277499794759776 0.001225254553572729
-0.9881860736227792 -0.1526223476723995 -0.01395359770666129
-0.9766011177542085 -0.2118306308215945 -0.03712196986899574
-0.9610540134868581 -0.2677341872121354 -0.06850976688515326
-0.9415944770887407 -0.3189830612775322 -0.1079335320185256
-0.9176284477354671 -0.3655473973619602 -0.1559908080256432
-0.887873391584764 -0.4071384292583988 -0.2142875169877403
-0.8518000765965774 -0.4409142778910918 -0.2828979127915951
-0.8028087065910245 -0.4721021201461532 -0.3641672263880327
-0.7240596220132465 -0.5116099328872488 -0.4625937097941757
-0.6722614353912989 -0.4806938706718679 -0.5630257233769402
0 0 0
0 0 0
0 0 0
0 0 0
0 0 0
0 0 0
0 0 0
0 0 0
0 0 0
0 0 0
0 0 0
0 0 0
0 0 0
-0.6001663337793384 0.5396301543597259 -0.5904232958679433
-0.6657743735161691 0.5700624114210467 -0.4814284273430193
-0.7194861034520673 0.582169549795617 -0.3787061687246838
-0.7739822656651271 0.5657819594820849 -0.2843276749816802
-0.8167400107640508 0.5395939098542827 -0.2043872972209999
-0.850822445133537 0.5072205996316018 -0.1372167269918174
-0.879567046014574 0.468883427744272 -0.08068545564088565
-0.9043085020930863 0.4255609984840543 -0.03352565601762756
-0.9259052394965377 0.3777145887214615 0.005583631420093983
-0.9447491875418738 0.3256453895743687 0.03747069372091166
-0.9608048183750737 0.2700834042640681 0.0625224417979067
-0.9738520517870051 0.212188846061813 0.08116695655989353
-0.9837713020070612 0.1527670047621661 0.09410774465115397
-0.9905084047428994 0.09218071741266359 0.1019598718661535
-0.9939993376994211 0.03058516492279287 0.105023160968221
-0.9941459118195672 -0.03188224458070667 0.1032348220947581
-0.9908237502168628 -0.09496837139735644 0.09617330419781138
-0.983915339492074 -0.1581201866765135 0.08311805626685667
-0.9733811559615237 -0.2202764654286318 0.06330405987988215
-0.9593079629669631 -0.2800172930734484 0.0363118130639813
-0.9417105975762142 -0.3364191805058514 0.001812567355946306
-0.9202929550026562 -0.3890762885483964 -0.04099412960269669
-0.8943551361874238 -0.4374802696576464 -0.09348745389327147
-0.8627355735028346 -0.4806356739749501 -0.157088125316268
-0.8225080325587563 -0.5182756791210384 -0.2342452919653859
-0.7708633088348734 -0.546671629537919 -0.3269860678232423
-0.7189000985082059 -0.5473819028991708 -0.4284340097884082
-0.6561779164090932 -0.5295101088188592 -0.5376333199083366
0 0 0
0 0 0
0 0 0
0 0 0
0 0 0
0 0 0
0 0 0
0 0 0
0 0 0
0 0 0
0 0 0
-0.560800157102947 0.5801604034537227 -0.5906920433336839
-0.6319496042691579 0.6146869483344533 -0.4720165815004075
-0.6874902029698507 0.6297895493767844 -0.361555451232946
-0.7333918235885121 0.6272984591516573 -0.2619791522993237
-0.7746870842963344 0.6078656616400223 -0.174239085234574
-0.8099606314429654 0.5778674750476573 -0.1001646484272625
-0.8401261849365793 0.5410243259974041 -0.03847950185438633
-0.8665644913105124 0.4988994016367184 0.01285960521464256
-0.8901154137668417 0.4523390905113938 0.05553284946775663
-0.9112233602577006 0.4017604219548621 0.09088757380035435
-0.930014269051796 0.3474402168917327 0.1198280227921605
-0.9463565974726038 0.2898117087049076 0.1428928406800598
-0.9599809119692412 0.2295092926055227 0.1605058667538846
-0.97061829107547 0.1671208078339601 0.1731206764619912
-0.9780453102894878 0.1030787242424543 0.1811136318151851
-0.9820792901299223 0.0377170194617734 0.1846556100984399
-0.9825736983953626 -0.02861800414002422 0.1836571181868526
-0.9794299278736105 -0.09545965826752574 0.1777764608404061
-0.9726228992703927 -0.162123823640059 0.1664949297221434
-0.9622258034519449 -0.2276855389249877 0.1492675401274375
-0.9483917382628945 -0.2911451993073434 0.1256486518629295
-0.9312497958893067 -0.3517420530623774 0.09513856086565277
-0.9107814244317921 -0.4089506026485811 0.05689113730061327
-0.8867269902893473 -0.4621938767981693 0.009595047820264883
-0.8584766202588922 -0.5105604491227115 -0.04843470099509239
-0.8249123701991193 -0.5525277486837999 -0.1193007478052074
-0.7852100537163625 -0.5845323122604098 -0.2043701237124568
-0.7404821508583063 -0.6004801384746199 -0.3018439788330342
-0.6863623703985988 -0.5997143824815974 -0.411399265854391
-0.6180806717118508 -0.5792513872242963 -0.5314547145853113
0 0 0
0 0 0
0 0 0
0 0 0
0 0 0
0 0 0
0 0 0
0 0 0
0 0 0
-0.5211563111480222 0.598356729026618 -0.608576473566923
-0.5886257082179985 0.6492334635553012 -0.4816800654219
-0.6434874902417864 0.6746214776346725 -0.3616762527680477
-0.6885480246366872 0.6792130065963244 -0.2541088535240293
-0.7268340524768487 0.6678451001141328 -0.1602971690755153
-0.7609362780750708 0.6438983807210448 -0.07981764224827974
-0.7915423203519647 0.6109935144781465 -0.01215238073258298
-0.8192538452017104 0.5717222660255994 0.04423559260103208
-0.8446428732947802 0.5274995088045678 0.09122874987237645
-0.8680501058285054 0.4790270229580977 0.1304688661981151
-0.889578341887526 0.4266256702318111 0.1632204372739416
-0.909125089762265 0.3704883673873998 0.190341642305019
-0.9264224623712952 0.3108773172702154 0.2123598710227021
-0.9411039025800343 0.248188430992465 0.2296213127523803
-0.9527846439672767 0.1828827593225717 0.2423949639796819
-0.9611170054606718 0.1154239083571864 0.2508613624970209
-0.9658167615179739 0.04628534322501772 0.2550600912990394
-0.9666801761270046 -0.02399957194742224 0.2548596822359372
-0.9636029610084401 -0.09477945503057134 0.2499723753535047
-0.9566005876899437 -0.1652558406532011 0.240012130446061
-0.9458153249621976 -0.2345195431980152 0.224575054101843
-0.9314898085360241 -0.3016772158684572 0.2032672969746397
-0.9139015306428618 -0.3659908358534704 0.1755981217436888
-0.8932849102503243 -0.4268685397197588 0.1408024109047482
-0.8697586497985221 -0.4837023603674226 0.09773391261806107
-0.8432512759810682 -0.5356435906411533 0.04486902451972899
-0.8134522775176861 -0.5813019888325686 -0.01958034679439302
-0.7799160344789809 -0.6183035021950858 -0.09711724015781992
-0.7419815498463442 -0.6434182888575025 -0.1883514938918696
-0.6972973135260058 -0.6536517743450555 -0.2941357075313619
-0.643248730353961 -0.6440869671367104 -0.4139843592005023
-0.5780537175747812 -0.6087740313969223 -0.5433673511490298
0 0 0
0 0 0
0 0 0
0 0 0
0 0 0
0 0 0
0 0 0
0 0 0
-0.5604775683443497 0.6554229059984745 -0.5062466885573859
-0.5972329059306897 0.7070148699450707 -0.3787384714418883
-0.6375396801582844 0.7244632280922115 -0.2620995752874918
-0.6739804403220732 0.7211329325174005 -0.1603672650577977
-0.7065542093400264 0.7038367002387881 -0.0734509949616975
-0.7364631763146038 0.6764776247897046 0.0001144180209084073
-0.7644541328643394 0.6416943668412526 0.06195335592874632
-0.7909388057410359 0.6012100354883039 0.1138520917730332
-0.8161209088028656 0.5559897110632952 0.1575503202362264
-0.8400210025063137 0.5064885529401669 0.1945097968968716
-0.8624960221623563 0.4528825944713689 0.2258272954693313
-0.8832598015259607 0.3952603347595666 0.2522328106612517
-0.9019095806301978 0.3337661771633462 0.2741518691331968
-0.9179675956950032 0.2686724633041444 0.2918057585381365
-0.9309377523223997 0.2003767558048339 0.305293395005603
-0.9403590934301636 0.1293801036442779 0.3146197135975368
-0.9458486547207391 0.05628164076360169 0.3196915689784827
-0.9471351242676073 -0.01820609445306028 0.3203179584465237
-0.9440881415386261 -0.09324619533093709 0.3162320794328854
-0.9367390595183955 -0.1678929803885365 0.3071349565074694
-0.9252839324293157 -0.2411566185305878 0.292733888928209
-0.9100585318574479 -0.3121046866342573 0.272734547086352
-0.8914879650917796 -0.3799488727300067 0.2467550652118697
-0.8700245497021227 -0.4440434880665961 0.2142023893920615
-0.8460824655254812 -0.5037927521209284 0.1741761305137494
-0.8199662335128918 -0.5584986611938519 0.1254377189817964
-0.7917921944589936 -0.6071641759788525 0.06645889106606562
-0.7613993560873862 -0.6482682011147662 -0.004399996947443381
-0.7281962065260171 -0.6795965387892597 -0.08876276959838107
-0.691092401338103 -0.6977908395993742 -0.1883593294316314
-0.6501270356292244 -0.6964124794997932 -0.303882371882454
-0.6127663794008966 -0.6616937860054761 -0.4320633030444201
0 0 0
0 0 0
0 0 0
0 0 0
0 0 0
0 0 0
0 0 0
-0.4405453630206727 0.709040608478461 -0.5506189232577069
-0.5287355527715412 0.7433343422946317 -0.4097472035301509
-0.577553294146439 0.7651808198062844 -0.2844828736869385
-0.6149384757889604 0.76904541424272 -0.1744127914649391
-0.6470493193741388 0.758241993192052 -0.07997660944055686
-0.6762403251024962 0.7366810861595249 -3.030479856622691e-07
-0.7038279498544625 0.7071553876830293 0.0675090710536569
-0.7305075672450911 0.6714438890145198 0.12458650851001
-0.7565681295911706 0.6305896505869776 0.1730934945614945
-0.7820368263693704 0.5851110795940236 0.2146239193063958
-0.8067576048098698 0.5351862100374746 0.2504353961946378
-0.8304299130820033 0.4808169093246471 0.2814271827064855
-0.8526317184173214 0.4219684148787525 0.308158740900591
-0.8728402678077186 0.3586826803261409 0.3309027073437215
-0.8904650930772694 0.2911497817306908 0.3497194913199146
-0.9048946325534942 0.2197381716702702 0.3645282429207406
-0.9155515877980209 0.1449975196765994 0.3751546472698375
-0.9219470358807846 0.06765630482472404 0.3813610984986513
-0.9237304671802177 -0.01138727228829985 0.3828738095415353
-0.9207307340539899 -0.09108806870700718 0.3794178160124105
-0.9129827973398121 -0.1703082364838989 0.3707526349836437
-0.9007308201223951 -0.2479024837564291 0.356690830032158
-0.8844035563719507 -0.3228200691130736 0.337072028585101
-0.8645652927091746 -0.3941806059012758 0.311686548593296
-0.8418527784596301 -0.4612904335627607 0.2801696545011261
-0.8169040180414324 -0.5235922391583503 0.2419069912195737
-0.7902766306064225 -0.5805676592587001 0.1959694877786663
-0.7623470746705568 -0.6316022420632411 0.1410870141505958
-0.7331762045677973 -0.6758170294361172 0.07565709338654597
-0.702328086245949 -0.7118498767707707 -0.002238796895670922
-0.6686555524149632 -0.737513792213696 -0.0947267571450246
-0.6299450589376905 -0.749505552259753 -0.2034960683939406
-0.5806005309013172 -0.7446695096908629 -0.3291965140366426
-0.4958021518456822 -0.7272449204791414 -0.4746525591024209
0 0 0
0 0 0
0 0 0
0 0 0
0 0 0
-0.3676638557652618 0.7013146715582541 -0.6107217210980448
-0.4446201306986818 0.7651465389226394 -0.4656862821172554
-0.5051364850720959 0.7988417281064727 -0.3266328594689637
-0.5481478638706107 0.8109518464760466 -0.2046729636057881
-0.5819273438106682 0.8070108027985732 -0.1004695510682816
-0.6111830191097087 0.7913907743180244 -0.01248837364343826
-0.6383273630765804 0.7672952732616619 0.06161283290038091
-0.6646215057114251 0.7367635118049324 0.1243293280716191
-0.6906784364709682 0.7009373977955666 0.1779046423385228
-0.7167076643126605 0.6603518202200003 0.2241999051017248
-0.7426540574302687 0.6151510213163948 0.2646774866809696
-0.7682745993877544 0.5652495650850555 0.3004114996246648
-0.7931790597678551 0.5104605898910994 0.3321098693411735
-0.8168511308518625 0.4506083157006537 0.3601477139278442
-0.8386683372913953 0.3856241597007075 0.3846159480312908
-0.857930943547715 0.3156239672741296 0.4053837779012196
-0.8739082156818069 0.2409568276938943 0.4221661257745986
-0.8858979226156096 0.1622304824624037 0.4345873229459895
-0.8932943341175802 0.08031202932872182 0.4422388614521913
-0.895654433928429 -0.003693877701129285 0.4447353035816622
-0.8927545838820938 -0.08850009025416278 0.4417657603102729
-0.884625505912381 -0.1727245028596121 0.4331327283883808
-0.8715576664329319 -0.2550060117004755 0.4187590811894094
-0.8540726888817807 -0.3341209784531021 0.3986514942450182
-0.8328669954504551 -0.4090714192660716 0.3728178400089951
-0.8087373681363975 -0.4791171539403542 0.341160698469075
-0.7824971233596458 -0.5437519367690783 0.3033679007307047
-0.7548836044777182 -0.6026312062179403 0.2588172578925863
-0.7264510384836166 -0.6554613729785423 0.2064928018579774
-0.6974362805008956 -0.7018425120601413 0.1449128113942507
-0.6675799786522738 -0.7410413660438442 0.07207403079127875
-0.6358656352449275 -0.7716633688253075 -0.01450996649691105
-0.6000510594343337 -0.7912808109267423 -0.117530440018106
-0.555690645510344 -0.7961802967400797 -0.2393842968433286
-0.4951422925187257 -0.7808752905050892 -0.3808777898984035
-0.4195597306981706 -0.7355434983722957 -0.5319261174060942
0 0 0
0 0 0
0 0 0
0 0 0
-0.400033003626061 0.7430457804973143 -0.5365226594423088
-0.4379169896709776 0.8099453992484752 -0.3901501767188323
-0.4783351056448742 0.8403926418403717 -0.2548249090027637
-0.5126889709997726 0.8474568795995893 -0.1377202099712335
-0.542119791638631 0.8393935496979571 -0.03904612963085372
-0.5688300152672121 0.8213003368882398 0.04356799695150256
-0.5944048299047099 0.7961730560447328 0.113098908104113
-0.6197784857303752 0.7656175263402067 0.1723497374133914
-0.6454158633723558 0.7303507826189451 0.2236651462235672
-0.6714567676244719 0.6905434155246863 0.2688784120876858
-0.6978060299934031 0.6460440703402803 0.3093441508789325
-0.724186107219421 0.5965294245325584 0.3459871786312825
-0.7501631941006843 0.5416195405694656 0.3793460893300194
-0.7751624547896013 0.4809778000615388 0.4096138724854426
-0.798482643065661 0.4144070477642666 0.4366832576206468
-0.8193243391492447 0.3419356718814991 0.4602038934783148
-0.8368367140091958 0.2638893443361378 0.4796527160687549
-0.8501861755974772 0.1809350721313379 0.4944147717208315
-0.8586386724910652 0.0940926470528983 0.5038712175480544
-0.8616464952419453 0.004699903095958452 0.507487170427155
-0.8589224367090295 -0.08566931184742918 0.5048891132965831
-0.850487105883165 -0.1753345237576535 0.4959127821554448
-0.8366757845459372 -0.2626616468727042 0.4806063782520557
-0.8181032689436989 -0.3462119577266295 0.4591778758506636
-0.7955931604605141 -0.4248494571019422 0.4318963554241162
-0.7700865830255565 -0.4977893400409078 0.3989641933628372
-0.7425426331459243 -0.5645819901321222 0.3603853692634713
-0.7138380138452312 -0.6250451932446215 0.3158382440289465
-0.6846644081576517 -0.6791494522252307 0.2645574979929705
-0.6554162775560534 -0.7268524636471485 0.2052193928570985
-0.6260559759255278 -0.7678539584414247 0.1358462863451501
-0.5959414251047882 -0.8012248397764536 0.05378265491093843
-0.5636331060734828 -0.8248458172756457 -0.04412594997084431
-0.5269384323805751 -0.8345357447881625 -0.1608912028395841
-0.4845890271412693 -0.8226017338841312 -0.2974892639829179
-0.444944512178493 -0.7753548245785213 -0.448162110273785
0 0 0
0 0 0
0 0 0
-0.2851220794410022 0.729280743440502 -0.6219766853042857
-0.3662700028631881 0.8040150121711427 -0.4684080968621663
-0.409718042767453 0.8530685978909635 -0.3231177691231981
-0.4430471078367268 0.8754804250910215 -0.192985195079713
-0.4714208065832308 0.8781287779060724 -0.08156146475881207
-0.4970176739854361 0.8676594637140989 0.01185271165042932
-0.5213358451274166 0.8485907272511838 0.09001507767362206
-0.5453899420329404 0.8235141225080772 0.1561227118617163
-0.5697963374356588 0.7936828020652611 0.213072155737777
-0.5948671313299733 0.7595064661692857 0.2632166862307383
-0.6206803587812456 0.7208890883102629 0.3083420415356641
-0.6471237092226101 0.6774433078549957 0.3497162701454583
-0.6739152115263687 0.628633232158868 0.3881475841723911
-0.7006113432899854 0.573882419156959 0.4240315019381903
-0.7266085619951785 0.5126753002858703 0.4573882750050446
-0.7511515303642026 0.4446599237739935 0.487902583125793
-0.7733561878745144 0.3697547662178357 0.514977300019517
-0.7922592851440511 0.2882447369887777 0.5378105583765593
-0.806894744619456 0.2008530012162052 0.5554988235882639
-0.8163942631852077 0.1087634851590787 0.5671603929527621
-0.8200954914609991 0.0135804406700422 0.5720655176783065
-0.8176389044948444 -0.08278723893051318 0.5697480977824599
-0.8090284917976404 -0.178301151616525 0.5600728513254817
-0.7946417597865851 -0.2710005580970323 0.5432339929665438
-0.7751842096707131 -0.3591925190220724 0.5196827641511395
-0.7516010096434322 -0.4415885197657575 0.4899954096867232
-0.7249646212707338 -0.5173615293521644 0.4547123770606757
-0.6963593879377411 -0.5861274178880316 0.4141717673029905
-0.666775159320334 -0.6478615025157545 0.3683562955500707
-0.6370142485429 -0.7027664282224282 0.3167525761802324
-0.6076059857039591 -0.751089064376776 0.2582250636757376
-0.5787180972788798 -0.7928673014634524 0.1909104663238106
-0.5500516039163951 -0.8275615503337445 0.1121833919892312
-0.5207203526577638 -0.8535199917274181 0.01881324133691757
-0.4891539284087889 -0.86728712700332 -0.09242009335948273
-0.4529720208233796 -0.8631229967906016 -0.2232376329438968
-0.407176863266016 -0.8343011455896705 -0.371683468140043
-0.3269481059542217 -0.7803227618576887 -0.5331053585734576
0 0 0
0 0 0
-0.3190851069084365 0.7604607836971079 -0.5655829656275115
-0.3482944705674544 0.8426798606957374 -0.4105869142458736
-0.376759921823583 0.8870686319378986 -0.2667605734348907
-0.4020915125984896 0.9046531121641179 -0.1411565164915656
-0.4252861092873709 0.9043848586169736 -0.03492495886276507
-0.4474373512240085 0.892690850157305 0.05387822171406952
-0.4693999836471243 0.8735935472588813 0.1284444219875791
-0.4917692551700893 0.8492758570781443 0.1920768550701467
-0.5149187156791601 0.8206831222360466 0.2476649533547648
-0.5390400088504753 0.7879837308819383 0.2975189216232462
-0.5641688097714085 0.7508738210954325 0.3433686923332642
-0.5901927724310463 0.7087713143244428 0.3864139171419115
-0.6168482139808229 0.66094514085616 0.4273754809149666
-0.643707822939762 0.6066207045021902 0.4665314132568322
-0.6701692439876298 0.5450842115859393 0.5037423812751737
-0.695450898051967 0.4758022847442719 0.5384795578579026
-0.718609575397032 0.3985528282075416 0.5698736011392933
-0.738587559736321 0.3135572250544986 0.5968000362088363
-0.7542979473178018 0.221583276558245 0.6180092703365071
-0.7647410717850408 0.1239900290345625 0.6322954735130358
-0.7691379426837113 0.02267967138154134 0.6386802467826074
-0.7670503658620627 -0.08005109533111079 0.6365732937904039
-0.7584592651676928 -0.1817476015141103 0.6258652829684279
-0.7437768349510291 -0.280068671175237 0.6069246734285612
-0.7237908045540671 -0.3730344280462534 0.5804930548552497
-0.6995550604713443 -0.459192647803725 0.5475078351694493
-0.6722558855986082 -0.5376829369102156 0.5088900506333713
-0.6430800468721354 -0.6082005017572827 0.4653388045039023
-0.6131044404633995 -0.6708865611496609 0.4171500535213238
-0.5832122486915405 -0.7261665901591973 0.3640680654942429
-0.5540313569638491 -0.7745490664315821 0.3051606121221412
-0.5258813980043896 -0.816369935552459 0.238723445767319
-0.4987151701486252 -0.8514468854965106 0.1622386521206295
-0.4720478635564606 -0.878588691540385 0.0724756897803292
-0.4449016898504322 -0.8949301812980968 -0.03409482321386135
-0.4158755267005802 -0.8951781847848747 -0.1603233101478713
-0.3837628898892623 -0.8710194765680723 -0.3066775436560726
-0.3516161042817527 -0.8105562505702759 -0.468363832795807
0 0 0
0 0 0
-0.3047586287801715 0.8024543669937405 -0.5130196556436254
-0.3180504962457711 0.8776150483195995 -0.3586582060971208
-0.3365699186149486 0.9159407800936148 -0.218570760270047
-0.3557132152179391 0.9294505894907856 -0.09792706579156935
-0.3747057393839292 0.9271372303667483 0.00348782749238556
-0.3938008777637398 0.9149405689780414 0.08834378252398395
-0.413397061531614 0.8963700044487762 0.1600739973934769
-0.4338204248672294 0.8732221773403517 0.2219974503659686
-0.4552919506379672 0.8461730448471078 0.2769484028812015
-0.4779318550771732 0.8151912352413462 0.327176392620524
-0.5017586434602082 0.7798031773047791 0.3743598113825011
-0.5266786152745471 0.7392585242857204 0.4196504146112376
-0.5524644649090018 0.6926451471568439 0.4637086532866123
-0.5787298703603372 0.6389878468196549 0.5067210956428472
-0.6049029701072735 0.5773600619716674 0.5484047370286569
-0.6302113819768937 0.5070199297882573 0.5880173507850625
-0.6536882653633336 0.4275749471117232 0.6243967619460258
-0.6742162408149468 0.3391539807995198 0.6560541425288005
-0.690615000512676 0.2425551348061303 0.6813354002589733
-0.7017734699751613 0.1393163576143974 0.6986450810963158
-0.7068047738158911 0.03166789909796942 0.7066994805982149
-0.7051926249337844 -0.07765871549940359 0.7047499454742655
-0.6968865436925721 -0.1857362069210195 0.6927129323600159
-0.6823193334777052 -0.2897975267871572 0.6711614713543873
-0.6623399499440409 -0.3875485623520666 0.6411800858783518
-0.6380852038114342 -0.4773714104351913 0.6041223461982147
-0.6108244316963487 -0.5583860503630904 0.5613363807938514
-0.5818139765191122 -0.63038907401094 0.5139086612372347
-0.552182765757805 -0.6937041667870523 0.462459427606727
-0.5228570423221451 -0.748986176005169 0.4069892153943289
-0.4945159146920632 -0.7969975302604723 0.3467692992105541
-0.4675635452365666 -0.8383542745166233 0.2802613807957109
-0.4421008814069251 -0.8732060552910178 0.2050804614348211
-0.4178947327798976 -0.9007930443543796 0.1180503433183727
-0.3943884146660454 -0.9188134116590509 0.01548201965693306
-0.3709468532180448 -0.9225729359763792 -0.1061018844863426
-0.3479530849105154 -0.9039918984678242 -0.2484497901101825
-0.3304466429143486 -0.8507411073464642 -0.4087108812566015
0 0 0
0 0 0
-0.2590023904672945 0.8449611400855389 -0.4679299450532872
-0.2720387721600736 0.9094270980035842 -0.3145429380202611
-0.2879050012272154 0.9408380856128322 -0.1787020059449162
-0.3039123808788514 0.9506278978832906 -0.06280019517917929
-0.3199710063488134 0.9468009862321201 0.03444484817808684
-0.3364319746432828 0.9345225883398797 0.1161079597622502
-0.3536254761779937 0.9167646405953354 0.1857191868170643
-0.371792710830501 0.8949721258280637 0.2465665714651983
-0.3910972191670196 0.8695902053156016 0.3014230249649041
-0.4116355491303327 0.8404222953689879 0.3524862268782854
-0.4334348565027681 0.8068525439008954 0.4014015415629062
-0.4564350573030205 0.7679841353178499 0.4492965683876092
-0.4804617189211968 0.7227357319595263 0.4967993542671081
-0.5051903798274184 0.6699347148868142 0.544031394240581
-0.530111359416876 0.6084318800208028 0.5905866523987331
-0.5545013356629779 0.5372584224773052 0.6355168418107975
-0.5774192084392011 0.4558237863306955 0.677356430205393
-0.5977393102563487 0.3641384060981825 0.7142205108917962
-0.6142383989844292 0.2630108398874947 0.7440003274963787
-0.6257339896672973 0.1541575971494425 0.7646518223454094
-0.6312583470751013 0.04015533473362225 0.7745324062558264
-0.63022546983427 -0.07579147040532991 0.7727040249577911
-0.6225453518923876 -0.190241946317785 0.7591082180416724
-0.6086461718385547 -0.2999691034955957 0.7345531801403627
-0.5894011455536714 -0.4023520620325977 0.700513460112035
-0.5659838911826641 -0.4956130063280658 0.6588095194213466
-0.539698108999677 -0.5788738405556005 0.6112536526374144
-0.5118209583085701 -0.6520564339018486 0.5593404273278484
-0.4834877396260662 -0.7156875207103623 0.5040148592360455
-0.4556222268880496 -0.7706605064958695 0.4455230298122684
-0.4289043515993737 -0.8179897383679297 0.3833195078571995
-0.4037549857260124 -0.8585557792407235 0.3160124767058106
-0.3803189894817129 -0.8928124661547533 0.2413366249003149
-0.3584336080815511 -0.9203963775605809 0.1561917308022435
-0.3376024631176353 -0.9395708485878796 0.05684362216428764
-0.3170919822194717 -0.9464619587399316 -0.06051805904271332
-0.2966004540769082 -0.9341169589792279 -0.1986294982845459
-0.2792288423484353 -0.8912223359592537 -0.3574269176881935
0 0 0
-0.09103223960820903 0.7978161247160795 -0.5959887268186621
-0.1801661640041243 0.8832986607810084 -0.4328089985322799
-0.2139077039011119 0.9355411125521541 -0.2810806306674847
-0.2330440441165721 0.9610773740681456 -0.1483939168432115
-0.2479717593007329 0.9681001067691264 -0.03594704247785168
-0.261854501601135 0.9633465760146454 0.05827172961290252
-0.2758581415054536 0.9512882909925968 0.1376694344636481
-0.2904973261900597 0.9344654799617156 0.2058775612745251