# OOMMF: rectangular mesh v1.0
# Segment count: 1
# Begin: Segment
# Begin: Header
# Title: 
# Desc: time = 7.999999999999999e-10
# Desc: stepsize = 8.997488797703791e-14
# Desc: step = 5118
# meshunit: m
# valueunit: (none)
# valuemultiplier: 384000.0000000001
# xmin: 0
# ymin: 0
# zmin: 0
# xmax: 9.357999999999999e-08
# ymax: 9.357999999999999e-08
# zmax: 2.3395e-08
# ValueRangeMaxMag: 1
# ValueRangeMinMag: 0
# meshtype: rectangular
# xbase: 1.16975e-09
# ybase: 1.16975e-09
# zbase: 1.16975e-09
# xstepsize: 2.3395e-09
# ystepsize: 2.3395e-09
# zstepsize: 2.3395e-09
# xnodes: 40
# ynodes: 40
# znodes: 10
# End: Header
# Begin: Data Text
0 0 0
0 0 0
0 0 0
0 0 0
0 0 0
0 0 0
0 0 0
0 0 0
0 0 0
0 0 0
0 0 0
0 0 0
0 0 0
0 0 0
0 0 0
0 0 0
-0.8487079599696477 0.02830836276435864 -0.5281036217275543
-0.8581208910725355 0.04410096812122382 -0.5115502330325417
-0.8679560595514003 0.02260720253806001 -0.4961261866515498
-0.8726774432747704 -0.0143211064022017 -0.4880870679610618
-0.8705615577030342 -0.05560417263622916 -0.488907711368011
-0.8617276979907563 -0.09267417617209754 -0.4988355155623686
-0.8482296737275589 -0.1143286282929317 -0.5171415525373056
-0.8363246862001428 -0.09804196023850102 -0.5393966938022742
0 0 0
0 0 0
0 0 0
0 0 0
0 0 0
0 0 0
0 0 0
0 0 0
0 0 0
0 0 0
0 0 0
0 0 0
0 0 0
0 0 0
0 0 0
0 0 0
0 0 0
0 0 0
0 0 0
0 0 0
0 0 0
0 0 0
0 0 0
0 0 0
0 0 0
0 0 0
0 0 0
0 0 0
-0.7925925524838372 0.2466914605559723 -0.5576202731572055
-0.8202166612199505 0.2734592097812508 -0.5024586443111612
-0.8566447434813752 0.2538057564975287 -0.449157457284687
-0.8925346669183264 0.2036352517397881 -0.4023860740605529
-0.9237330431304773 0.1202609178899283 -0.363668223326123
-0.9364116009791975 0.07749358265213947 -0.342239767121402
-0.9440895543505776 0.03644504137430846 -0.3276685403351258
-0.9472400625361194 -0.008408610215997876 -0.3204146675806268
-0.9453622426354646 -0.05497030138605313 -0.3213541600240619
-0.9384936773852141 -0.09986381197666867 -0.3305402192857406
-0.9271601885897663 -0.1409454048452656 -0.3471431657791818
-0.9105921685009176 -0.1835453508475278 -0.3703147402508488
-0.8735323202716223 -0.265884900038535 -0.4077333753476328
-0.8322498664752734 -0.3162525465576644 -0.4553509487721325
-0.7911835678111364 -0.3362973267111119 -0.510815690902893
-0.760448843833994 -0.3094879788314941 -0.5709069511490795
0 0 0
0 0 0
0 0 0
0 0 0
0 0 0
0 0 0
0 0 0
0 0 0
0 0 0
0 0 0
0 0 0
0 0 0
0 0 0
0 0 0
0 0 0
0 0 0
0 0 0
0 0 0
0 0 0
0 0 0
0 0 0
0 0 0
-0.7629962492181338 0.3443729107910458 -0.5470320118533843
-0.800412870572708 0.3699644078940607 -0.4716625631880844
-0.855067416856334 0.3306737416789673 -0.3993927755914812
-0.8886332077470456 0.3071719493192935 -0.3405531025267292
-0.9182138655477015 0.2717737642949479 -0.2881359369410574
-0.9443884916724252 0.2209917876572417 -0.2435015535571335
-0.9649960315012075 0.1580898602793573 -0.2092612129941263
-0.976854509158374 0.1027249285343479 -0.1876242441545454
-0.9834289461685971 0.05016344333196199 -0.174215776526705
-0.9857886118450074 -0.002548680361257345 -0.1679711790311316
-0.9840602531460169 -0.05558382437993458 -0.1689255949982033
-0.9782338455125728 -0.1082048888820539 -0.1770600054097639
-0.9681156843183552 -0.1605815567417994 -0.1922643633416825
-0.9524167272529792 -0.2156422280617133 -0.21540846576981
-0.9272971301790486 -0.2781004902993914 -0.2505596728464853
-0.8966367067343061 -0.3287218533373202 -0.2966219130056558
-0.8627973676277002 -0.3640579122508638 -0.3507741993679878
-0.8251165292596726 -0.3874362200754957 -0.4111883856775179
-0.7654298667210911 -0.4258684114576436 -0.4824450385835418
-0.7244046054111702 -0.4002427155717909 -0.5612875700483707
0 0 0
0 0 0
0 0 0
0 0 0
0 0 0
0 0 0
0 0 0
0 0 0
0 0 0
0 0 0
0 0 0
0 0 0
0 0 0
0 0 0
0 0 0
0 0 0
0 0 0
0 0 0
0 0 0
-0.7637470889740591 0.4261566327763733 -0.4848514292279165
-0.81448487838884 0.4234413068502969 -0.3966255696861067
-0.8538398238850753 0.4112122795355256 -0.3191582934957192
-0.8914362813519777 0.3777931997036414 -0.2502272058490868
-0.9205956541681107 0.339488014708054 -0.1930065527291028
-0.9448347927175164 0.2939406477290709 -0.1445202756815162
-0.9651259031157282 0.2399931748203613 -0.1045718278251505
-0.9808887564963562 0.1798342090559994 -0.07427586843810421
-0.9913271528116324 0.1198073260905028 -0.05400630253429294
-0.9972866872971843 0.0606484925290844 -0.04172557601468284
-0.9993409266384465 0.001774191450400279 -0.03625692471938935
-0.9976785403582965 -0.05702246165257244 -0.03722860426633019
-0.9922843105010144 -0.1156785459863797 -0.04461301527584617
-0.9829208535183759 -0.1744087806272313 -0.05872114575541929
-0.9689294052773401 -0.2338133871929326 -0.08066664464490401
-0.9494073445311989 -0.2932121458467544 -0.1124825838881656
-0.9253520615207894 -0.346407471388342 -0.1540306008738505
-0.8973743074838585 -0.3912439329082369 -0.2040772824945487
-0.8643405113057588 -0.428935691336405 -0.2625445737650254
-0.8224137448515862 -0.4618831361582375 -0.3321138371279045
-0.7788069874658677 -0.4739528590077382 -0.4108872883318854
-0.723882587321018 -0.4754378981913746 -0.4999528025091934
0 0 0
0 0 0
0 0 0
0 0 0
0 0 0
0 0 0
0 0 0
0 0 0
0 0 0
0 0 0
0 0 0
0 0 0
0 0 0
0 0 0
0 0 0
0 0 0
-0.656769279831575 0.5184439149194915 -0.5476038898259076
-0.7077626890048143 0.5512875804345455 -0.441762356602844
-0.7870372164276279 0.5147677808869 -0.3399802225404103
-0.8360679607451544 0.4862242007324469 -0.2541188533689133
-0.8723176098508932 0.4543479686109853 -0.180637512613231
-0.9027570445210444 0.4137758002067855 -0.1175555431736953
-0.9278382824222784 0.3672794065818608 -0.06497660480936092
-0.9487882802760902 0.3151886707978548 -0.02137524295581645
-0.9661553098850654 0.2575876144300997 0.01387580891706445
-0.9798034454885624 0.1957891133177221 0.04064272770129089
-0.9894360671097778 0.1323751218660785 0.05910242138250393
-0.9951630596946625 0.06858493849218217 0.07033200431653117
-0.9971550550634004 0.004757914285714531 0.07522737808242465
-0.9954971647359399 -0.05897329433635643 0.07421283957524984
-0.9901862151959147 -0.1224752357046581 0.06731326670930236
-0.981127673446629 -0.1856236680022062 0.05415110594079296
-0.9681415350935285 -0.2481031110693299 0.03386464682327304
-0.9511338598780852 -0.3087319958869246 0.005379155053585139
-0.9304636823093807 -0.3650263566050919 -0.03151340804926748
-0.9062396017000497 -0.4157654752294482 -0.07660844547284223
-0.8777740262938102 -0.4609825675599058 -0.1304140758117371
-0.8436354337009203 -0.5004887487604975 -0.1943971897132542
-0.8032752123888095 -0.531608401823685 -0.2685915863763788
-0.7493013719488415 -0.5594455909305478 -0.3543558730767042
-0.6635789086547852 -0.5949012569631447 -0.4536028289728736
-0.6076849941842256 -0.5620109437524128 -0.5611262308481395
0 0 0
0 0 0
0 0 0
0 0 0
0 0 0
0 0 0
0 0 0
0 0 0
0 0 0
0 0 0
0 0 0
0 0 0
0 0 0
-0.6325630047685298 0.5655324264324116 -0.5291853358244889
-0.6952192529059815 0.5869062742720701 -0.4149833919675893
-0.7459659465170166 0.5901098969755822 -0.3087152670802633
-0.7970959181734122 0.5655552534044103 -0.2116255007742637
-0.8372122972391133 0.5312411898617232 -0.1298397764396804
-0.8691997806913683 0.4906341524424336 -0.06139926467940462
-0.8960682673975202 0.4438982132477858 -0.004004552238207071
-0.9189460048842973 0.3919625630218144 0.043630142064382
-0.9384672306345232 0.3352974221748838 0.08279429755753366
-0.9548437671245145 0.2742662480254353 0.1142427484679699
-0.9679376379403725 0.209720860749497 0.1382529913777708
-0.9774859315778707 0.1430160399027125 0.1551375708778748
-0.9833330494184921 0.0752205390747705 0.1655233651863976
-0.985418409892547 0.006992160519379982 0.1700049032708026
-0.9837266334961723 -0.0612259462409136 0.1689180098663005
-0.9782685708417527 -0.1290459685117479 0.1622890671428581
-0.9690825939632249 -0.1960337192336231 0.1498322628839987
-0.9562576170934333 -0.2615570860403812 0.1309933604914874
-0.9399853871457925 -0.3246020528276742 0.1051711902206769
-0.9205579883436882 -0.3838994851464259 0.07207062786552164
-0.8980830943604357 -0.4386996660065625 0.03145407238680838
-0.8722436439032969 -0.488762393425512 -0.01738816963520892
-0.8422374678195197 -0.5337612568113808 -0.07572957498954967
-0.8067247585565771 -0.5728971123384785 -0.1448587677914737
-0.7623589320602162 -0.6060667882037092 -0.2269182825257724
-0.7060175113504661 -0.6298690767299792 -0.3237347986327964
-0.649932184347252 -0.6264568045900677 -0.4302790114941824
-0.5822407932833606 -0.6042357189571116 -0.5439621811975029
0 0 0
0 0 0
0 0 0
0 0 0
0 0 0
0 0 0
0 0 0
0 0 0
0 0 0
0 0 0
0 0 0
-0.5873252242278593 0.6115475479942504 -0.5301496746466173
-0.6553524174188726 0.6370577278692107 -0.4057963286494318
-0.7079934551216702 0.6432595238494498 -0.2914831941671047
-0.7512901039971223 0.6322550794427098 -0.1892529898175591
-0.7902064959010509 0.6047120921085585 -0.09948356393632093
-0.8235987515669814 0.5666754500816176 -0.0237493303506687
-0.8522838622730406 0.5215958851867766 0.03936941281211466
-0.8774019040908785 0.4708654597487956 0.09193267924549753
-0.8995540515801126 0.4152489843433877 0.1355388847806716
-0.9189520743207366 0.3551747476694992 0.1714000691934591
-0.9355229667359242 0.2910215594977494 0.2002579102485395
-0.9489923259054601 0.2234167474791521 0.2224826337456048
-0.9590072878690906 0.1532749993390785 0.2383522527512085
-0.9652649944242118 0.08153103043265543 0.2482260695733134
-0.9675665841507687 0.008993810861077003 0.2524559696283844
-0.965824371730598 -0.06363674266504038 0.2512641000106831
-0.9600596313775582 -0.1357012257600405 0.2446848616617066
-0.9504041364050695 -0.2065116294501959 0.2325616572136476
-0.9371035541509631 -0.2752889508843335 0.2145994462216418
-0.9205057406847468 -0.3411538773685303 0.1904815301357139
-0.9009908544144904 -0.4032725773498593 0.1599584590418634
-0.8788185133538242 -0.461115829231067 0.1226793080316276
-0.8539930547961369 -0.5144181923105776 0.07790882992241178
-0.8261777674871377 -0.5628799762874647 0.02442189191262258
-0.7945853898951397 -0.60587273966017 -0.03939900381821714
-0.757818033794657 -0.6421431093010815 -0.1156030052928496
-0.7148237789469258 -0.6683929697024318 -0.2056156684311773
-0.6667467253066536 -0.6786775150294705 -0.3079701850606257
-0.6085734866115923 -0.672075766730611 -0.421844136105826
-0.5349926730213816 -0.6457097628219989 -0.5448318474628608
0 0 0
0 0 0
0 0 0
0 0 0
0 0 0
0 0 0
0 0 0
0 0 0
0 0 0
-0.5417023854195758 0.6357306913556307 -0.5499136420377589
-0.6063710596524415 0.6772619360596579 -0.4166898222667529
-0.6584092697386298 0.6935508414725488 -0.2923772628214505
-0.7010012869865884 0.6895814511950703 -0.1818642840440285
-0.7372684345107178 0.6701270276152047 -0.08581970830599261
-0.7697585747807449 0.6383262846077173 -0.003360197973804698
-0.7991542846511627 0.5974635842858639 0.06625477172231592
-0.8259302747774182 0.5498296338354983 0.1246055976367815
-0.8504472008964719 0.4966312932103166 0.173484630707172
-0.8728072985066687 0.4384740864654052 0.2143546014710632
-0.8928723055244384 0.3757000545624543 0.2482509114368804
-0.9103198130586326 0.3086442119104548 0.2757835898074248
-0.924707122007527 0.2378301613375057 0.2972432553763532
-0.9355549388143722 0.1640232709820266 0.312783188545024
-0.9424392917087691 0.08813217178102029 0.3225537191548627
-0.9450587366747398 0.01110324263699358 0.3267119560678616
-0.9432691919530058 -0.06612544887197688 0.3253777136249539
-0.9370977936488604 -0.1426278472564485 0.318598528442032
-0.9267434574054629 -0.2174833871621968 0.3063454593504304
-0.9125627587481299 -0.2897838663374792 0.2885385973427188
-0.8950294590716699 -0.3586820498665778 0.2650838631402956
-0.8746563556019262 -0.4234939909156812 0.2358582185624766
-0.851889881065129 -0.4837901302431566 0.2005760215433269
-0.8270176238991184 -0.5393377800715208 0.1586083501830207
-0.8000969297674245 -0.589906471521949 0.1088818526351584
-0.7708881101611917 -0.6350139494696185 0.04988793031488081
-0.7388258169218311 -0.6735935490826455 -0.02020254647399396
-0.7031810238153916 -0.7035120670213001 -0.1029913554690625
-0.6630070489107903 -0.7216244083179321 -0.1991980582596094
-0.6154727797982616 -0.7248310734018004 -0.3095370290588731
-0.5575294208020285 -0.7081698625753332 -0.4331932486549018
-0.4871222592693649 -0.665818760210356 -0.5651524423341491
0 0 0
0 0 0
0 0 0
0 0 0
0 0 0
0 0 0
0 0 0
0 0 0
-0.5720456353142527 0.68992464400117 -0.4435851403257002
-0.6067016036326337 0.7315873198549483 -0.3109552340402771
-0.6446901885980615 0.7402076431840393 -0.1909638858457927
-0.6791804099792164 0.7288297408499625 -0.08672473437860251
-0.7102816099237895 0.7039133326839139 0.00246062469601934
-0.7391419885892572 0.6689709465574678 0.07840276376712262
-0.7664154751925826 0.6262595959156588 0.1428504039507164
-0.792363510117166 0.5771810123590667 0.19754024098134
-0.8169859728200851 0.5224767742398048 0.2440326629678623
-0.8400658249829247 0.462498694079815 0.2835213707469387
-0.8612073091185375 0.3974558551496772 0.3167819659135382
-0.8798805458935297 0.3276166500745258 0.3442056878554584
-0.8954759303011941 0.2534561090766783 0.3659000669895012
-0.9073750128159098 0.1757136424094526 0.3818315099471621
-0.9150328764538805 0.09535588674400847 0.3919465395583951
-0.9180524154617044 0.0134977223616024 0.3962291937199715
-0.9162363938871896 -0.06867216409274676 0.3947087589545194
-0.9096132156555599 -0.1499512084274296 0.3874512007929575
-0.8984372388700171 -0.2291764311631334 0.3745513198627778
-0.8831617622671195 -0.3052840383668711 0.3561277265078499
-0.8643831775622083 -0.3773808885772495 0.3323031556938706
-0.8427594274682666 -0.4448164278765233 0.3031417043307113
-0.8189200996498548 -0.5072106570456587 0.2685278752174199
-0.7933881017909372 -0.5643910450730486 0.2280308491803797
-0.7665167569346175 -0.6162456059357148 0.1808132033435603
-0.7384314548239782 -0.6625262277122198 0.1256104459030302
-0.7089744883432647 -0.7026086804253354 0.06079652185260623
-0.6776473457113857 -0.7352255325346302 -0.01541074818049192
-0.6434783153313228 -0.7582606878267039 -0.1047682537553047
-0.6049572101893284 -0.7683226872722725 -0.2090622444695787
-0.5618438224801079 -0.7589657760794023 -0.3290934060128385
-0.5219435720768248 -0.716671863037405 -0.4625541571515475
0 0 0
0 0 0
0 0 0
0 0 0
0 0 0
0 0 0
0 0 0
-0.4496592246912316 0.7469329937031708 -0.4897935121739559
-0.5337260536984497 0.7726609666036652 -0.3437026771652624
-0.5797902176816231 0.7859194231353651 -0.2148812784289748
-0.6150402576296308 0.7818548651858835 -0.1021197888758123
-0.645556065865325 0.7636950201442333 -0.005223220403427964
-0.6736400662948108 0.7349932673374399 0.07742065648750948
-0.700515507648084 0.6981172146917081 0.1480215460520456
-0.7267572265748107 0.6544415605884051 0.2086388683728455
-0.7524963538582594 0.6046719217511325 0.2610002001451661
-0.7775589031771386 0.5490873863067093 0.3064395442641679
-0.8015475283086387 0.4877532611931556 0.3458588094262637
-0.8238936160657437 0.420711128290881 0.3797386679524833
-0.8439034865965576 0.3481421060686421 0.4081960059729433
-0.8608132325146655 0.2704906614535076 0.4310862799882358
-0.8738612286732327 0.1885260275415541 0.4481344552264514
-0.8823747461566955 0.1033299141442195 0.4590617999658158
-0.8858562204131889 0.01622812501025813 0.4636759695238806
-0.8840509128346127 -0.07130779018898445 0.4619190216635933
-0.8769841929956079 -0.1577695133153216 0.4538804973823924
-0.8649616772373242 -0.2417225327996392 0.439785759259803
-0.8485320993660944 -0.3219105898387667 0.4199605320682234
-0.8284171675464795 -0.3973450510075919 0.3947681686180404
-0.8054217527136304 -0.4673608133946723 0.3645129220737905
-0.7803420199146434 -0.5316166676390175 0.3293175528937382
-0.7538872280277508 -0.5900265287107284 0.2890030152683556
-0.7266153959977421 -0.6426355009077021 0.2430013976753027
-0.698872869647544 -0.6894617245723924 0.1903135371440214
-0.6707213639470864 -0.7303143528061078 0.1295136982344154
-0.6418326451680875 -0.7645868859743759 0.05880263083010773
-0.6113288280407702 -0.7910152604474838 -0.02391488543768022
-0.5775816620091986 -0.8073401097286215 -0.1208361325683215
-0.5378743753377901 -0.8100459081689626 -0.2334882930977528
-0.4859446425321787 -0.7956329844849372 -0.3616987121816496
-0.3949937107795614 -0.7677923438280534 -0.5044550378414471
0 0 0
0 0 0
0 0 0
0 0 0
0 0 0
-0.3719605959893746 0.7452748215540912 -0.5533631315770376
-0.4458462562331997 0.7997164812820403 -0.4020878826434728
-0.5031304508973522 0.8245132603407261 -0.2589162661984224
-0.54356983574659 0.8285847068587602 -0.1340866034554058
-0.5753984400340956 0.8174151861566755 -0.02736875310963188
-0.6032403678941559 0.7950381448003544 0.06336723802828921
-0.6294193246511209 0.7642035783643563 0.1407984537231828
-0.6550956267165277 0.7264824710610771 0.2075402107974988
-0.680762232619248 0.6825861910996402 0.2657797478351984
-0.7064760164259087 0.6326873812258808 0.3171723756138219
-0.731984120629099 0.5766658574366302 0.3628439554598095
-0.756797709377656 0.5143032099211775 0.4034221552486988
-0.7802410424653651 0.4454510938447616 0.4390868235839753
-0.8014969280380615 0.3701805649684147 0.4696477655277571
-0.8196653671273786 0.2889029924926266 0.4946551797573176
-0.8338435911892755 0.2024407364329847 0.5135393009936458
-0.8432255484853511 0.1120294863978317 0.5257566628764835
-0.8472053120598405 0.01924955260493915 0.5309167674335568
-0.8454637478178727 -0.07409972755234297 0.5288669790244274
-0.8380180519643996 -0.1661607397104953 0.5197271910922625
-0.8252232509184035 -0.2551864757582709 0.5038714605271211
-0.8077241095693635 -0.3396918362319643 0.4818622409130377
-0.7863690866659192 -0.4185625842841229 0.4543446077303042
-0.7621048012383375 -0.4911049252189214 0.4219149491961511
-0.7358734993831716 -0.5570265063619855 0.3849826802801983
-0.708526856795061 -0.6163564051150804 0.3436487670190671
-0.6807583423374602 -0.6693228663273074 0.2976154901031703
-0.6530425316496992 -0.7162095451519216 0.2461287047254513
-0.6255650745223448 -0.7571958047600138 0.1879437436886034
-0.5981209318052099 -0.792171330788187 0.1213092478492039
-0.5699576362074882 -0.8204962661634039 0.04397920122836229
-0.5395219849681993 -0.8406774431411993 -0.04666330817194008
-0.5039844646794682 -0.8500176405223561 -0.1531981402059305
-0.4582253028339748 -0.8444253619096173 -0.2774443728146658
-0.393903206696238 -0.818147097957056 -0.4188980661913678
-0.3129165607058156 -0.7619651600938707 -0.5670029284220363
0 0 0
0 0 0
0 0 0
0 0 0
-0.3959016145792333 0.7845843770243104 -0.4771679650845503
-0.4316289769952815 0.8414173914693688 -0.3251356633020883
-0.4694553828859287 0.8630704696938711 -0.1863357395182841
-0.5015145436710997 0.8625803344312211 -0.06662078608730777
-0.529097573744529 0.8478501553571332 0.03472566080778286
-0.5543870506008358 0.8234710505329876 0.120625151026655
-0.5789055263645803 0.7919016248844389 0.1943198601531327
-0.6035072783573819 0.7542349267995218 0.2586670449929497
-0.628555658849445 0.7107229074764936 0.3158967117848789
-0.6540522195607839 0.6611381111801845 0.3675759677028814
-0.6797127332676838 0.6050258035523949 0.4146497042921322
-0.7050121714651284 0.5418970533183105 0.4574990947433181
-0.7292174079561783 0.471397383205003 0.4960105634370575
-0.7514261057479611 0.3934636090131313 0.5296651734660448
-0.7706260783905244 0.3084596845053795 0.557663043727377
-0.7857844028501761 0.2172672378687465 0.5790836032787297
-0.795962582194684 0.1213023243689917 0.5930677143873625
-0.8004420159112853 0.02244210354434959 0.5989899257519959
-0.7988324367815592 -0.07713526260951357 0.5965877045395729
-0.7911369952070864 -0.1751700615672824 0.5860185187732692
-0.7777553671546928 -0.2695570521707575 0.567834117050992
-0.7594248951502824 -0.3585489979801486 0.5428779279666963
-0.7371147600635554 -0.4408905640116166 0.5121301993262698
-0.71190087706192 -0.5158632006383155 0.4765315304003098
-0.6848468618890031 -0.5832459430075474 0.4368168331532345
-0.6569088190956267 -0.6432124858769744 0.3933808604982598
-0.6288651038538289 -0.6961940433040086 0.346182806076397
-0.6012627005023358 -0.742728870564897 0.2946811663714367
-0.5743627621456742 -0.7833046179601914 0.2377841309730937
-0.5480678044265506 -0.8181769717125515 0.1738048466249958
-0.5218109299364295 -0.8471283646742526 0.1004334962211544
-0.4943941623362744 -0.8691120375895499 0.01478777754611704
-0.4638038590176753 -0.881722583627787 -0.0863207152487276
-0.4273036268573323 -0.8804075756814492 -0.2056553212471831
-0.3833438879445548 -0.8572554376382819 -0.3437449319119478
-0.3410181217973788 -0.7990384806128652 -0.4952213112394005
0 0 0
0 0 0
0 0 0
-0.2775431434827279 0.7759940871983557 -0.566394721143229
-0.3557412612117982 0.8414273691987371 -0.4067531652424238
-0.39668628461308 0.8811714713970287 -0.2572485754982235
-0.4275973007603012 0.8953953910432301 -0.124208059646083
-0.4537689628671443 0.8910608931560249 -0.01020847816586202
-0.4774468624998234 0.874418792987171 0.08623379824600678
-0.500129086726702 0.8494291334578223 0.1683479843746504
-0.522800397249736 0.8181073718103652 0.2395413801935998
-0.5460287802124568 0.7811605270353039 0.3027223186050578
-0.5700515122505301 0.7384965694071879 0.3600890033793001
-0.5948303713372599 0.689576142254817 0.4131120590926164
-0.6200790118459192 0.633658423799757 0.4625786646785551
-0.6452745879698544 0.569995797015632 0.5086506635254184
-0.6696691126664883 0.4980140935897451 0.5509312499091538
-0.6923153523196788 0.4174912980319461 0.5885579572226332
-0.7121228477442976 0.3287237394975606 0.6203400299926575
-0.7279522865590662 0.2326478851500125 0.6449499438163036
-0.7387464491304201 0.1308776773797398 0.6611540799699263
-0.7436780187911303 0.02562496558174133 0.6680466791368949
-0.7422829204755597 -0.08050118503509954 0.6652335117672725
-0.7345423245375899 -0.1847846489752467 0.6529182237968303
-0.7208899419560195 -0.2847165736976797 0.6318656219865897
-0.7021414926860196 -0.3782612096096074 0.6032543257642867
-0.6793689784327505 -0.4640174284066831 0.5684589846929055
-0.6537530493899905 -0.5412581035761387 0.5288162400366029
-0.6264477445834714 -0.6098622926695515 0.4854185897615784
-0.5984762748284981 -0.6701784151773503 0.4389613198196151
-0.570662745240804 -0.7228571203326793 0.3896429324119387
-0.5435891542899021 -0.7686820008198021 0.3371035641372753
-0.5175631686778113 -0.8084033124475626 0.2803791198573656
-0.4925781210681245 -0.8425587248372939 0.2178568104181023
-0.4682510717516791 -0.8712412779129454 0.1472398365389647
-0.4437287089076824 -0.8937587593887916 0.06557524614463044
-0.4175761952886527 -0.908129246836607 -0.03051871832546826
-0.3877122705680825 -0.9104394588714741 -0.1441498767975844
-0.3513626388249254 -0.8944633587873764 -0.276549445533325
-0.3032443865158084 -0.8530863686935395 -0.4246015657012121
-0.2173646840762448 -0.7853607698609479 -0.5796214758614908
0 0 0
0 0 0
-0.3033955112435993 0.8050817805198731 -0.509700392811488
-0.3309758112091047 0.8769725547016399 -0.3483879313273547
-0.3572702913405828 0.9121665862727668 -0.2007736482033966
-0.3802851972576733 0.9220257120801406 -0.0724689934372026
-0.4011928803640296 0.9152665575357508 0.03648837351635061
-0.4211572568050361 0.8977985566269381 0.1287801101065023
-0.4410552499066199 0.8730412018009797 0.2080128036629221
-0.4614829523425343 0.8425774651010041 0.277662925146991
-0.4827962315627051 0.8067808885968469 0.3406059256438914
-0.5051410143600216 0.7652807756234099 0.3989710391401361
-0.5284627840107816 0.7172801868112917 0.4541323810559337
-0.5524983806457714 0.6617847578740703 0.5067410321153771
-0.576760821711182 0.5977969535524048 0.5567636454210217
-0.6005289577200165 0.5245117998317755 0.6035332159682195
-0.6228581972297303 0.4415263263373894 0.6458344751519067
-0.642627169033991 0.3490471175956738 0.6820531000717682
-0.6586325988078784 0.2480551596428031 0.7104025179869249
-0.669730114433007 0.140371042915577 0.7292170761387474
-0.6750023052622077 0.02857147356520194 0.7372622049101784
-0.673914974290046 -0.08425879486898136 0.7339884623853927
-0.6664182225101897 -0.1948991665203656 0.7196534357564239
-0.6529588598944754 -0.3004006030718565 0.6952727558011826
-0.634401802936692 -0.3984221629883646 0.6624153775919962
-0.6118854249929419 -0.4874232445599614 0.6229083458614487
-0.5866549536280483 -0.5666913311281929 0.5785299478919208
-0.5599123058316551 -0.6362369959362865 0.5307548349099124
-0.5327073655667762 -0.6966107542069034 0.4805791503948061
-0.5058732953538631 -0.7486968398220144 0.4284218144403379
-0.4799971334487863 -0.7935171858938669 0.3740764996254451
-0.4554073768128727 -0.8320546766049726 0.3166846006426772
-0.4321625333823704 -0.8650776807694528 0.2547079719503796
-0.410024437546566 -0.8929279123804981 0.1859024042513355
-0.3884087918484943 -0.9152151107837643 0.1073308502149048
-0.3663184384968911 -0.9303601322334544 0.01551856848255839
-0.3423056311140199 -0.93496901553322 -0.09305801900144454
-0.3145900360205625 -0.9231673254299342 -0.2208963523807547
-0.2817647095399076 -0.8862312539185133 -0.3676993514216615
-0.2471267165061021 -0.8125659029029034 -0.5278873359235862
0 0 0
0 0 0
-0.2825904390006336 0.8437640001641945 -0.4562948123881593
-0.2945698103845857 0.9085489322006997 -0.2962557418970252
-0.3110168500918228 0.938036946068753 -0.1528241040182068
-0.3277545184723494 0.9442996522932171 -0.02958280412447023
-0.3441841288417504 0.935919843402487 0.07477521099207365
-0.3606322946090797 0.9182491543074505 0.1635935166766744
-0.3775349421598576 0.8941723813160053 0.2406722251112841
-0.395240912296672 0.8648749940969217 0.3094767613775599
-0.4139786592201949 0.830441068613013 0.3728126892571201
-0.4338491108290022 0.7902651804984664 0.4327307402122132
-0.4548094481654377 0.7433294860890104 0.4905197661359806
-0.4766456135932527 0.6884105061017481 0.546717417073067
-0.498939142823732 0.6242702524517043 0.6011209392977458
-0.5210406712603936 0.5498680930067722 0.6528106150987539
-0.5420643738923365 0.4646045621500113 0.7002205476748772
-0.56092208155252 0.3685778752963501 0.7412939823503328
-0.5764100776612833 0.262800174341254 0.7737489843203151
-0.5873518557519717 0.1492988905198851 0.7954417884636472
-0.5927767849628083 0.03103163909911534 0.8047687373301589
-0.5920949197370513 -0.08841246039770723 0.8010036472251535
-0.5852143514474553 -0.2052786322025565 0.7844646875551387
-0.5725626666582635 -0.3161580642728016 0.7564496487833491
-0.5550045540456106 -0.4184035461073169 0.7189634327234274
-0.5336868848963691 -0.5103508720189568 0.6743295161262777
-0.5098588987590635 -0.5913293852106484 0.6247987368285817
-0.4847147317555479 -0.6615092397146661 0.572238721681145
-0.4592829458591284 -0.7216642342746633 0.5179381320309638
-0.4343686447269545 -0.7729195557593529 0.4625140438979477
-0.4105347502675606 -0.8165276644149124 0.4058864275482479
-0.3881056184055575 -0.8536809347458294 0.3472792689083612
-0.3671731936287751 -0.8853438000065027 0.2852195674747633
-0.3475925676973624 -0.9120643277915883 0.217527168077075
-0.3289578249199347 -0.9337104129186531 0.1413209617545237
-0.310569302673241 -0.9490655161806183 0.05311642150853973
-0.2914524111194544 -0.9552334005352084 -0.0508393799588262
-0.2706417696014175 -0.9468671165426235 -0.1737690886126479
-0.2483755010084609 -0.9153826498907314 -0.3168346805162247
-0.2299384232813219 -0.8485252293601886 -0.4765849941386514
0 0 0
0 0 0
-0.2316001651195895 0.8821930512996237 -0.409996077731529
-0.2431097588306879 0.9366884765000683 -0.2520165533318496
-0.2566987628514003 0.9598171386812501 -0.1133878540422125
-0.2700105014063724 0.9628443976099852 0.004999512110542643
-0.2830627429853158 0.9532942171306491 0.1053832013125952
-0.2962572064803319 0.9357297919725911 0.1914194975006485
-0.3099626069715823 0.9125010479978938 0.2669550892605818
-0.3244548146652518 0.8844401997465814 0.3354021560943873
-0.3399220630516527 0.8513859257020024 0.3994934249361957
-0.3564645881183691 0.8125358455948326 0.4612141552913256
-0.3740775607774134 0.7666827769516918 0.5217887484877974
-0.3926188995831361 0.712398826096561 0.5816685587741254
-0.4117701044001492 0.6482220434611186 0.6405103929628161
-0.4309994596622011 0.5728828570889742 0.6971690597154063
-0.4495438290805014 0.4855827813065288 0.7497464292907677
-0.4664261967481793 0.3863018532346293 0.7957496347309994
-0.4805273323684647 0.2760712846485705 0.8323930133292413
-0.490716515530886 0.1571153336776318 0.8570367981064707
-0.4960281587330334 0.03276861792053347 0.8676878951693945
-0.4958424387742558 -0.09287513507254339 0.8634318069168258
-0.4900153025831325 -0.2155273386423323 0.8446496134682795
-0.4789101537916214 -0.3313280785954409 0.8129371248316429
-0.4633227177882032 -0.4373420216454951 0.7707554834604704
-0.4443272554858809 -0.5318067761547456 0.7209402491665176
-0.4230977312614781 -0.6141185071127458 0.6662182592987089
-0.4007507475609764 -0.6846259817115758 0.6088399654217672
-0.3782397910431393 -0.744333971257605 0.5503649695461408
-0.3563027948811751 -0.7946046746225411 0.4915808472956082
-0.3354518386236137 -0.8369057009492959 0.4325053891948679
-0.3159838827070747 -0.8726152329987068 0.3724202478490845
-0.2979953275895393 -0.9028628922363149 0.3098989876677221
-0.2813836030254908 -0.9283661193119255 0.2428160136031148
-0.2658272642804194 -0.9492064245609468 0.1683538806722641
-0.2507439821405162 -0.9644826915304527 0.08306980894698852
-0.2352603109713458 -0.9717862818222255 -0.01685255303505079
-0.2183253286386516 -0.9664981655287965 -0.1349642430582823
-0.1994389121037734 -0.9410182730500667 -0.2733289778357439
-0.1817534442326232 -0.8838801493739765 -0.4309542516929321
0 0 0
-0.06313920062124578 0.8395019708957753 -0.5396757194899716
-0.1487801575080827 0.915792014587148 -0.3730810243771213
-0.180039156597848 0.959067586873351 -0.2185755382023842
-0.1965010373083265 0.9769225735759114 -0.08372351864660904
-0.2083364313740344 0.977563287823989 0.03107973071125382
-0.218672945325775 0.9672910228706751 0.1285699033847074
-0.228690871822268 0.9499929707288703 0.2126354643771965
-0.2389387908523882 0.9275974085023135 0.287178171116452
-0.2497255274026669 0.9006631081112987 0.3555884231112623