# OOMMF: rectangular mesh v1.0
# Segment count: 1
# Begin: Segment
# Begin: Header
# Title: 
# Desc: time = 2.6999999999999998e-09
# Desc: stepsize = 8.849909763951023e-14
# Desc: step = 17278
# meshunit: m
# valueunit: (none)
# valuemultiplier: 384000.0000000001
# xmin: 0
# ymin: 0
# zmin: 0
# xmax: 9.357999999999999e-08
# ymax: 9.357999999999999e-08
# zmax: 2.3395e-08
# ValueRangeMaxMag: 1
# ValueRangeMinMag: 0
# meshtype: rectangular
# xbase: 1.16975e-09
# ybase: 1.16975e-09
# zbase: 1.16975e-09
# xstepsize: 2.3395e-09
# ystepsize: 2.3395e-09
# zstepsize: 2.3395e-09
# xnodes: 40
# ynodes: 40
# znodes: 10
# End: Header
# Begin: Data Text
0 0 0
0 0 0
0 0 0
0 0 0
0 0 0
0 0 0
0 0 0
0 0 0
0 0 0
0 0 0
0 0 0
0 0 0
0 0 0
0 0 0
0 0 0
0 0 0
-0.8357826534423561 0.02990387959586271 -0.5482454871587815
-0.845631078930925 0.0485817510607061 -0.5315523415525459
-0.8561858303647565 0.02942938091505488 -0.5158291727127967
-0.86174517535741 -0.005441335083250337 -0.5073121766927519
-0.8605099559382831 -0.0448283515825294 -0.5074574214902038
-0.852553361855231 -0.08007292977356414 -0.5164698356214241
-0.8398778021973259 -0.09986718151704613 -0.5335089722132422
-0.8286298743268109 -0.0815205467181908 -0.5538293345751019
0 0 0
0 0 0
0 0 0
0 0 0
0 0 0
0 0 0
0 0 0
0 0 0
0 0 0
0 0 0
0 0 0
0 0 0
0 0 0
0 0 0
0 0 0
0 0 0
0 0 0
0 0 0
0 0 0
0 0 0
0 0 0
0 0 0
0 0 0
0 0 0
0 0 0
0 0 0
0 0 0
0 0 0
-0.7798621381666418 0.2406966058385404 -0.577823666348099
-0.8079166026731028 0.2704774242196452 -0.523557758143891
-0.8451222926836482 0.2532911525489203 -0.4707567338334874
-0.8820044310589475 0.2051305046418306 -0.4242518823267253
-0.914346372972745 0.1232828307294618 -0.3857098052667524
-0.9277079391801287 0.08263513815161358 -0.3640458948056161
-0.9360876673751519 0.04366564219190632 -0.3490461154061372
-0.93999239470546 0.0007485800175112814 -0.3411945742884133
-0.9388974623120192 -0.04401379056764918 -0.3413712663712585
-0.9328193313978604 -0.08722488808849595 -0.3496282509586395
-0.9222815464858366 -0.1267422535473702 -0.365148120873471
-0.9065669486174956 -0.1679919080508711 -0.3871886962500195
-0.8706149665953284 -0.2496405312108143 -0.4239212015422171
-0.830207582172923 -0.2990939527533694 -0.4704234028287217
-0.7899037170220223 -0.3180003346275201 -0.5243356797048792
-0.7597534535723526 -0.2897679094336707 -0.582073232890263
0 0 0
0 0 0
0 0 0
0 0 0
0 0 0
0 0 0
0 0 0
0 0 0
0 0 0
0 0 0
0 0 0
0 0 0
0 0 0
0 0 0
0 0 0
0 0 0
0 0 0
0 0 0
0 0 0
0 0 0
0 0 0
0 0 0
-0.7525453911164962 0.334513079790638 -0.5672534122932196
-0.7904614270182857 0.3630692903499238 -0.4933066214850731
-0.8460141994677876 0.3259826179148823 -0.4218949005572803
-0.8802581067108305 0.3049258672176868 -0.3635462571274871
-0.910593532721931 0.2718052215648642 -0.3113540423618552
-0.9375974640468057 0.2230641687853201 -0.2667458940960712
-0.9590332684832588 0.1620301054209207 -0.2323820881212711
-0.9715578799603503 0.1086333795809769 -0.2104140554425119
-0.9787855845702761 0.05802150950603718 -0.1965000861884372
-0.9818367642910335 0.007162115291679448 -0.1895923848445959
-0.9808415962827084 -0.04415206913639487 -0.18973760247395
-0.975783882988944 -0.09520562061824156 -0.1969307073610239
-0.966471227357948 -0.1462004675972566 -0.2110895306820413
-0.9516270565547372 -0.2001243053868827 -0.2331441777664285
-0.9274004440850485 -0.2617423573111639 -0.2672439984359786
-0.8975093103048236 -0.3115449191587991 -0.3121166468846167
-0.8643539381623682 -0.3460384348567445 -0.3648967952518891
-0.827344505204708 -0.3686355015694892 -0.4238029455893236
-0.7685731001633679 -0.4066331666081418 -0.4939077419108797
-0.7281219514281522 -0.3800308571128253 -0.5704515505198932
0 0 0
0 0 0
0 0 0
0 0 0
0 0 0
0 0 0
0 0 0
0 0 0
0 0 0
0 0 0
0 0 0
0 0 0
0 0 0
0 0 0
0 0 0
0 0 0
0 0 0
0 0 0
0 0 0
-0.7562077062628808 0.4150890774540459 -0.5058171238372432
-0.8076465838490149 0.414944711382412 -0.4189604779603707
-0.8476700012958723 0.4052431940939161 -0.3423938120696918
-0.8859809944510521 0.3741097255719085 -0.2740065523012828
-0.9157569046579886 0.3380455230176201 -0.2170587845238298
-0.9406064309107085 0.2946506706868269 -0.1686431866196227
-0.9615268479755421 0.2427482827226758 -0.1286055669767438
-0.977914861558695 0.1845606648410683 -0.09808101006851706
-0.9889397871521809 0.1265026085839585 -0.07742859555004246
-0.9955034161299552 0.06927640599228656 -0.06460439649420532
-0.998216257001475 0.01224320424595086 -0.05843293769575853
-0.9972762977663657 -0.04485246554907991 -0.05855119339158656
-0.9926630362173858 -0.1019893590107792 -0.0649481883985278
-0.9841274766099672 -0.1594208041893366 -0.0779622791670618
-0.9709904203178141 -0.2177769640173291 -0.09874612698444914
-0.9523053953417654 -0.276366507534522 -0.129367644780812
-0.9290027065247783 -0.3288886116103129 -0.1696651184618591
-0.9017014650560634 -0.3731482241128225 -0.218391553767986
-0.8693073343314008 -0.4103783112982466 -0.275489382905463
-0.828031722928297 -0.4429891245451426 -0.3436918697890936
-0.7849733214384559 -0.4546453905553813 -0.4208496803808017
-0.7307160579647505 -0.4557666361075737 -0.5082625463711063
0 0 0
0 0 0
0 0 0
0 0 0
0 0 0
0 0 0
0 0 0
0 0 0
0 0 0
0 0 0
0 0 0
0 0 0
0 0 0
0 0 0
0 0 0
0 0 0
-0.6507815788607582 0.5042907773189029 -0.5676038658488812
-0.7024147316700377 0.5400632397815947 -0.4636218736961362
-0.7828637164372855 0.5054700898588971 -0.3628007576398359
-0.8326832990662387 0.4790779162015096 -0.2777100532285129
-0.8695510530877353 0.4493820964381434 -0.2047845147340715
-0.9005285455191334 0.410932873828137 -0.1420651678369522
-0.9260711332033088 0.3665366178924095 -0.08968368854776437
-0.947460516969554 0.3165282314581325 -0.04613510023584962
-0.9652809171552051 0.2609905962642943 -0.01080090911050324
-0.9794075036820655 0.2012432842946157 0.01618895480197604
-0.9895496984556639 0.1398727307049187 0.0350287523536467
-0.995847083433387 0.0780840857642552 0.04681305338873432
-0.998493041918987 0.01616109222332661 0.05244486950614181
-0.997577301493679 -0.04582321787936608 0.05234271914764078
-0.9930850208526224 -0.1077900937717866 0.04651276214992113
-0.9848970816746802 -0.1696592530697108 0.03454672714636771
-0.9727966809376237 -0.231138567051671 0.01554285617390597
-0.9566421830345831 -0.2910341582551791 -0.01161259521063274
-0.936749157855019 -0.3468112774974589 -0.04714820313111299
-0.9132171813805009 -0.3972114912624854 -0.09087029679980875
-0.8853698518152054 -0.4422492784022812 -0.1433031794810641
-0.8517908919711543 -0.4817088573517941 -0.2059340989341331
-0.8119390655739488 -0.5128621613344626 -0.278796264799667
-0.7585434352719379 -0.5408687133850593 -0.3634183425297041
-0.6736342507078308 -0.5767139880104006 -0.4621881351857036
-0.6182253843931832 -0.5434017302707008 -0.5679013414588034
0 0 0
0 0 0
0 0 0
0 0 0
0 0 0
0 0 0
0 0 0
0 0 0
0 0 0
0 0 0
0 0 0
0 0 0
0 0 0
-0.6292814640176394 0.5501065187982435 -0.5489878477885405
-0.6926688632454641 0.5740952981918512 -0.436605582287086
-0.7442146941763734 0.5798178259770717 -0.3315958046344802
-0.7962100064908253 0.5573938330544398 -0.235290757227645
-0.8369865170193939 0.5250841660133239 -0.1540785154712857
-0.86945921752272 0.4864455135391316 -0.08608967082309837
-0.8967018269160378 0.4416808060997949 -0.02904994197024332
-0.9198867806907672 0.3917555928398347 0.01832665242441559
-0.9397004592106056 0.3371568713784209 0.05734362250234094
-0.9563977744835006 0.2782477131697955 0.08877785241142987
-0.9698697420072916 0.2158670851323043 0.1129339855632104
-0.9798753209671708 0.151341391364498 0.1301542877485831
-0.9862815177084659 0.08568736663101355 0.1410901946505382
-0.9890411563334939 0.0194936524088642 0.1463474926135294
-0.9881358021297177 -0.04687083937495396 0.1462558066052279
-0.9835556596475262 -0.113086635239224 0.1408178870228838
-0.9753031574453425 -0.1787719399832605 0.1297086911188539
-0.9634199255815048 -0.243321463307436 0.1123241402658186
-0.9480465844464097 -0.3057150244533778 0.08801134894413551
-0.9294333942528415 -0.3646489732112898 0.05643307526259086
-0.9076675788138074 -0.4193322567174538 0.01732122531830452
-0.882429052978659 -0.4694842056095514 -0.03005906090274243
-0.8529251864046266 -0.5147317673729468 -0.08700479328034183
-0.8178423031712353 -0.5542224181367104 -0.1548272533447066
-0.773897597092577 -0.5878099344848217 -0.2357159098051807
-0.7180215417158329 -0.6120021101967615 -0.3315094006913358
-0.6623318544532151 -0.6087286311080219 -0.4367676364451905
-0.5952198069525204 -0.5866155939775864 -0.5491771356436165
0 0 0
0 0 0
0 0 0
0 0 0
0 0 0
0 0 0
0 0 0
0 0 0
0 0 0
0 0 0
0 0 0
-0.5865056306499676 0.595049222254818 -0.5494793611318077
-0.655305405854588 0.6231007775281364 -0.4269897494104337
-0.7087472998911434 0.6317324792511047 -0.3139925788235534
-0.7527939010149118 0.6229527670576234 -0.2126762624507052
-0.7923776129898567 0.5973852145597048 -0.1235662731409825
-0.8262742798893166 0.5611859136737799 -0.0483857901404471
-0.8553119207372808 0.5179183154926705 0.01421747945092159
-0.8806771021970805 0.4690549558751351 0.06629698360202586
-0.9030213280793531 0.4154122090482966 0.1094768359399146
-0.9226090890877195 0.3574411502452775 0.1450113541901473
-0.9394153979397555 0.2955166740190426 0.1736911209314202
-0.9532048827177112 0.2302379296824482 0.1959360796245904
-0.9636549859798236 0.1624679427852622 0.212068940590908
-0.9704845687442331 0.09306716728644199 0.2224819188217252
-0.9735026905413066 0.02275482838467133 0.2275406102084208
-0.9726109236930995 -0.04786296703469363 0.2274579686436395
-0.9678001922473054 -0.118211677282675 0.2222358819814989
-0.9591551988514857 -0.1876672161907562 0.2116655864409191
-0.9468643668562158 -0.2554836206480993 0.1953867711962995
-0.9312177228284343 -0.3207795232587901 0.1730145951880589
-0.9125483499580773 -0.3826886853722161 0.1442389651823482
-0.8910869840303156 -0.4406321674332974 0.1086613082692739
-0.8668276806919213 -0.4942855378929584 0.06551014437575907
-0.8394409528250187 -0.5432823637448866 0.01353366040628566
-0.808165890101634 -0.5869211493450192 -0.04890254111756064
-0.7716499198423161 -0.6238725522736273 -0.1238524918075397
-0.7288858852995458 -0.6507531871827967 -0.212710262052701
-0.6810406111393511 -0.6615494667416589 -0.3139044265899497
-0.6232261682466526 -0.6553993740179143 -0.4266624002059712
-0.5502494353270256 -0.6294193876588943 -0.548686425348205
0 0 0
0 0 0
0 0 0
0 0 0
0 0 0
0 0 0
0 0 0
0 0 0
0 0 0
-0.5433212213646053 0.6180242485710669 -0.5681972180440881
-0.60866237370733 0.6621781204460661 -0.4370929553715925
-0.6614977828995174 0.6809322573298384 -0.3142482205943465
-0.7048524536670258 0.6791605156738548 -0.2047535408953809
-0.7417804619487217 0.6616462481044205 -0.1094805400081853
-0.7748072458870474 0.6315906925133498 -0.02769348030556971
-0.8045967119887688 0.5923870663392317 0.04125160228233733
-0.8316381478135042 0.5464397276708988 0.09890204812984081
-0.8563293923839636 0.495046448965431 0.1470679608413336
-0.8788197687526421 0.4388721751585263 0.1872619233084385
-0.8990229609886757 0.3782846084783241 0.2205866510094264
-0.9166678909692692 0.3136104722687947 0.2477265616547706
-0.9313576765845647 0.2453320226309755 0.2690447489522796
-0.9426494745026877 0.174142133586397 0.2847568884676601
-0.9501425187101248 0.1008506457038023 0.2950565054363414
-0.9535400030753 0.02628837236486336 0.3001172837634687
-0.9526800357898559 -0.04872487598391057 0.3000443898288894
-0.9475491902128492 -0.1233683723508302 0.2948402564618335
-0.9382876146488193 -0.1967991385448253 0.2844054346608778
-0.9251834079838182 -0.2681485675218471 0.2685740257869862
-0.9086434796960831 -0.3365674992956892 0.2471625886408363
-0.889126131520246 -0.4013340438643109 0.2199675146092286
-0.8670427421388229 -0.4619555781301675 0.1866384931861937
-0.8426671497111538 -0.5181215090906259 0.1464997495401666
-0.8160642142678951 -0.5695148220430115 0.0984482892925983
-0.7870220061925665 -0.6155634366618286 0.04096360840680482
-0.7550200606062076 -0.6551131285240318 -0.02777583333859656
-0.7193835609267653 -0.6859533664286033 -0.1093401634971925
-0.6792271741538189 -0.7048911640899648 -0.204398856843456
-0.6318141730297958 -0.7088262735231892 -0.3136497484805366
-0.5741934891520833 -0.6927915735167731 -0.4362816437572282
-0.5044046614820755 -0.6509504485301838 -0.5673089555379015
0 0 0
0 0 0
0 0 0
0 0 0
0 0 0
0 0 0
0 0 0
0 0 0
-0.5766786660355726 0.6734478123991144 -0.4625037947025722
-0.6119776997980156 0.7178852183995375 -0.3318495263720857
-0.6507410389505774 0.7287933313902548 -0.2130642634197873
-0.6859518596132307 0.7193297881842685 -0.1097027899550651
-0.7176613046739196 0.6960666376926324 -0.0212952498224393
-0.747004417184891 0.6626350573578423 0.05384404764344528
-0.7746350087182153 0.62141488986903 0.1174058683251864
-0.8008301596132318 0.5739229649935526 0.1711241821217981
-0.8256202749778807 0.5209945561349493 0.2166006325549286
-0.8488303836329822 0.4630447280211491 0.2551010773660192
-0.8701148840614102 0.4003098110075247 0.2874928585998574
-0.888997459237667 0.3330458384893976 0.3142673812756678
-0.9049194073577009 0.2616741792678742 0.335629989857687
-0.9173039859860996 0.1868410019809716 0.3516302564808085
-0.925631640133104 0.1093867292764275 0.3622714593267108
-0.9295076901625833 0.03028009696148316 0.3675575732543427
-0.9287101254483333 -0.04943830864133517 0.3674960632828931
-0.9232161438347699 -0.1286955464738817 0.3620903313824407
-0.9132085966872456 -0.2064218441703378 0.3513404064234962
-0.8990600813193546 -0.2815981847636617 0.3352512975602712
-0.8812899728558777 -0.3533254296394415 0.3138297699610247
-0.860494698251278 -0.4209028590790422 0.2870359864207429
-0.8372649925668972 -0.48386915309822 0.2546722892306192
-0.8121103217178375 -0.5419524030236716 0.216250822463679
-0.7853951583935511 -0.5949343143687347 0.1709023310507253
-0.7572782841335897 -0.6424621277350074 0.1173542278995207
-0.7276531549624813 -0.6838168487304662 0.0539944762497147
-0.6960849886866157 -0.7176543672969909 -0.02092600355320698
-0.6616747068758277 -0.7418083121473383 -0.1091192481183038
-0.6229936909174725 -0.7528593006344237 -0.2123245970802022
-0.5798728674725336 -0.7443221090209575 -0.3312582913555138
-0.5401307289401661 -0.7025704681259533 -0.463307169134952
0 0 0
0 0 0
0 0 0
0 0 0
0 0 0
0 0 0
0 0 0
-0.455744234150837 0.7305123645354038 -0.5085753418119678
-0.540867217879062 0.7583836286242963 -0.363753933942175
-0.5878228699211279 0.7737808738399485 -0.2360665856854236
-0.6238971070023979 0.7715720728355523 -0.1242132693969805
-0.6551468626422006 0.7549771271330733 -0.02814473087403665
-0.6838575638306672 0.727642784756684 0.05361725639309056
-0.7112481758415138 0.6920596107226266 0.1232052254109578
-0.737896492585618 0.6497276740742811 0.1826546352323617
-0.7639457866913493 0.601468064771571 0.2337156435852679
-0.7892460364136825 0.5476555997290397 0.2777841573789219
-0.8134362885641702 0.4884224313228769 0.3158558738215845
-0.8359953959561086 0.4238395484233995 0.3485279545925077
-0.8562839460551903 0.3540724385044028 0.376045890842723
-0.8735924189916195 0.2795000416877841 0.3983917822657702
-0.8872047473577431 0.2007763127633536 0.415399336180301
-0.8964753504344967 0.1188259761331701 0.4268633662653015
-0.900906595359669 0.03479271025817059 0.4326161968192359
-0.9002117831538119 -0.05003516483943955 0.4325681769970179
-0.8943536906217974 -0.1343073526563086 0.426723576913233
-0.8835532742869674 -0.2166989877439456 0.4151808764954469
-0.8682660228031943 -0.2960016138701311 0.3981170157526555
-0.8491273817366359 -0.3712109253610174 0.375746109065286
-0.8268757010099936 -0.4415929061371636 0.3482416981473715
-0.802268376047543 -0.5067007660151125 0.3156260231884179
-0.776005665211311 -0.5663243755376671 0.2776542980611353
-0.7486647138915656 -0.6203814349268711 0.2337263814201032
-0.7206345591740283 -0.6687714016150703 0.1828404892409438
-0.6920378233835948 -0.711202255632532 0.1235920814198645
-0.6626195443579365 -0.7469910048328822 0.05421972089231813
-0.6315833985498777 -0.774826184915632 -0.027327529073675
-0.5973885789128731 -0.792430600927523 -0.1232096931986356
-0.5574104921000201 -0.7963003329180058 -0.2349453619280141
-0.5055028299722789 -0.7829950456659296 -0.3624715814413942
-0.415143802749847 -0.7563805191434086 -0.5055137320575404
0 0 0
0 0 0
0 0 0
0 0 0
0 0 0
-0.3800341556042023 0.7278869839273433 -0.5707491385918646
-0.4546641154983571 0.7847870133300888 -0.4211767868562258
-0.5128974400463717 0.8117981790023946 -0.2791414203630021
-0.5542713682245669 0.8177415560893808 -0.1551837549841598
-0.5869810388711998 0.8081001985780786 -0.04926793139311164
-0.61563191639218 0.7869878528512261 0.04058895150047764
-0.6425372575547554 0.7572742464811074 0.116968321653704
-0.6688516917854238 0.7206613497369254 0.1824407668015254
-0.6950665294473952 0.6779886874019213 0.2391941876320839
-0.7212441275795465 0.6295466368235686 0.2889254929841809
-0.7471479194702009 0.5753148127752262 0.3328405814091124
-0.7723187466979921 0.5151470322766067 0.371681703390746
-0.796123676905614 0.4489280568688286 0.4057717225562449
-0.8177980512785498 0.3767112544273264 0.4350804271773162
-0.8364967077795212 0.2988305709224418 0.4593185689216026
-0.8513637412011238 0.2159693708458192 0.4780554476464904
-0.8616198421196397 0.1291714571346028 0.4908421154785415
-0.8666552585638322 0.03979370922306107 0.4973179300104983
-0.8661106243153179 -0.05058844253286979 0.4972858292071353
-0.8599289752400406 -0.1403068539943316 0.4907505927299795
-0.8483677975490753 -0.227740592323549 0.4779187197524801
-0.8319678871128959 -0.3114511374075369 0.4591596931574616
-0.8114850033772361 -0.3902923721851246 0.434929825958113
-0.7877988748190957 -0.4634749879430727 0.4056647241071556
-0.7618181331895365 -0.5305707482131552 0.3716555032340323
-0.7343953950554672 -0.5914560031729967 0.3329312241769273
-0.7062554644509703 -0.6462094270383836 0.2891653425635025
-0.6779284339114632 -0.6949820567997498 0.2396100565934983
-0.6496723038182964 -0.7378466168997719 0.1830526360940693
-0.6213653206539943 -0.7746166827745974 0.1177885098633849
-0.5923449377741865 -0.8046086755204979 0.041621556559608
-0.561153460952721 -0.8263172809105404 -0.04802649820040199
-0.5250640732160224 -0.8370632922954931 -0.153729514762873
-0.4790731478052844 -0.8327980912879038 -0.2773738599781163
-0.4149580720546996 -0.8078038897206543 -0.4186438512492772
-0.3345427340953272 -0.7527482378695949 -0.5669667092945074
0 0 0
0 0 0
0 0 0
0 0 0
-0.4066805441698209 0.7683512383468527 -0.4942138297585322
-0.4430474937961124 0.8278618033045576 -0.3440258026228691
-0.4817807718455009 0.851665709122323 -0.2062833192120085
-0.5148161737310838 0.8528375195706837 -0.08736402278632517
-0.5433774537210655 0.8393852667264811 0.01316498348365397
-0.5696188586551613 0.8160373863985884 0.09806803691392935
-0.5950458348297754 0.7853965720957137 0.1705071229950162
-0.620499318067919 0.7486960828934411 0.2333126051829698
-0.6463329655595516 0.7063205525858512 0.2887299337197521
-0.6725451304620446 0.6581649431111583 0.3383813753020052
-0.6988589444021753 0.603880790057843 0.3833068838779075
-0.7247701972612599 0.5430587826816735 0.424022782069752
-0.7495809185581692 0.475382910554474 0.4605860776079186
-0.7724351592891984 0.4007710893599293 0.4926727703325255
-0.7923712489490898 0.3194977278689927 0.5196816388188156
-0.8083993542687091 0.2322794511020858 0.5408666569623674
-0.8196033200582024 0.140301589476954 0.5554870491197895
-0.8252538104731216 0.04517122128389748 0.562952670361651
-0.8249108231822553 -0.05120230754252371 0.5629391241502885
-0.8184918970458154 -0.1467820951873152 0.555451195878417
-0.8062888058965204 -0.239602778069548 0.5408224017432316
-0.7889282255054657 -0.3279565031903744 0.5196506393875968
-0.767286413881322 -0.4105311266253273 0.4926822029918267
-0.7423787692103703 -0.4864778866626244 0.4606658537529799
-0.715247772566841 -0.5554031429039075 0.4242027495085734
-0.6868662216419218 -0.617296272499175 0.3836145272613825
-0.6580606827921702 -0.6724161012434525 0.3388402640650264
-0.6294487126383923 -0.7211558277283346 0.2893589298627748
-0.6013761817238878 -0.763892543051833 0.2341257583543516
-0.5738376727430874 -0.8008078387029095 0.1715142291845538
-0.5463622608574268 -0.8316445206893142 0.09927573277594556
-0.5178504528055665 -0.8553469382899473 0.01457819217469273
-0.4863894148776964 -0.8695251697120152 -0.08573981765913892
-0.4493399601239608 -0.8696524845002438 -0.2044459743755051
-0.4052162438544857 -0.8478131081957678 -0.3420712342303754
-0.3630546833276499 -0.7906529245600843 -0.4930103952235135
0 0 0
0 0 0
0 0 0
-0.2898348781030445 0.7595062276118701 -0.5823624590010749
-0.3687170670880293 0.8271451259097991 -0.4241210500808273
-0.4104727510988141 0.8691556010862881 -0.2758272316246227
-0.4423566112658806 0.8852594752282801 -0.1436533674785102
-0.4696038109029597 0.8823530738927871 -0.03041897068223393
-0.4944164618018336 0.8667809645431409 0.06513924934336975
-0.5182627789082982 0.8426471942488036 0.1461143320241607
-0.5421031611993056 0.8121172951396665 0.2158463841549154
-0.5664839511753154 0.7760421957398949 0.2772263398236266
-0.5916240076875079 0.7344662914194281 0.3324760146181415
-0.6174727472307504 0.6869781362242973 0.3831298040835511
-0.643740800366851 0.6329507791368976 0.4300826584890863
-0.6699148360083467 0.5717246085290847 0.4736508043888178
-0.6952698157593714 0.5027697898574948 0.5136364684293552
-0.7188927976127516 0.4258442139651914 0.5494086375120788
-0.7397319067168885 0.3411413433706055 0.5800166290963515
-0.7566796404836844 0.2494043298873482 0.6043454326053306
-0.7686896836592222 0.1519737425807465 0.6213052002050886
-0.7749125429107453 0.05074107646443268 0.6300284866566213
-0.7748228297253483 -0.05200071478174753 0.630036116582685
-0.7683064792815584 -0.153790063103548 0.6213322544215633
-0.7556836193277378 -0.2522663986571296 0.6044037819109773
-0.7376606251095503 -0.3454168980204912 0.5801240976936641
-0.7152254955830728 -0.4317489578103893 0.5495865062914026
-0.6895147530165442 -0.5103618239769822 0.5139068145096163
-0.6616820688122101 -0.5809202625911521 0.4740342691445627
-0.6327898202668342 -0.643555180526505 0.4305969960231546
-0.6037306892155919 -0.6987238686723412 0.3837892784417288
-0.5751739121428394 -0.7470553674590377 0.3332915371576998
-0.5475232352787824 -0.789189196560673 0.2782062523772139
-0.520870856778604 -0.8255940301407091 0.2169978063362494
-0.4949321465661293 -0.8563306598757932 0.1474448074776857
-0.4689512246143476 -0.8807050921869157 0.06665800423609453
-0.4415890909657795 -0.8967582249325112 -0.02870123265484148
-0.4108546255194323 -0.9006174656572108 -0.1417274046981357
-0.3740459022943242 -0.8861082796913085 -0.2736818949790688
-0.3259331444799604 -0.8461853003499975 -0.4215898751167884
-0.2406623879156336 -0.7800772666333081 -0.5775474639582888
0 0 0
0 0 0
-0.3181099963473547 0.7896684030291982 -0.5246235254744123
-0.346156263880155 0.8641717938604514 -0.3652163080594035
-0.3732774435343708 0.901566224260508 -0.2187288125078521
-0.3973533223853077 0.913120729487601 -0.0912188060072493
-0.4194870401946516 0.9076028317674816 0.01696239595040725
-0.4407998883814 0.891049295773673 0.1082894773474606
-0.4621360970022064 0.8670302944063574 0.1862490172569829
-0.4840623001993882 0.8372787209567819 0.2542597745587216
-0.5069064139993822 0.8023117591283916 0.3151852290488758
-0.5307889140349651 0.7618969557911462 0.3711821082619227
-0.55563414672801 0.7153698285693367 0.4236941153267448
-0.5811649350458674 0.6618567118544125 0.4734902440878769
-0.6068895592841534 0.6004553547149218 0.5207095445889797
-0.6320926660499451 0.5304095770213664 0.5649110922347756
-0.655843924661267 0.4512930874495785 0.6051473338825287
-0.6770391170320855 0.3631939888524189 0.6400844947894634
-0.6944847261754331 0.2668687550093097 0.6681856274335853
-0.7070266192862141 0.1638196553739938 0.6879509285798313
-0.7137070045797135 0.05625150687160261 0.6981819817128813
-0.7139171500259497 -0.05311217026662429 0.6982130049407519
-0.7075053453070678 -0.1613311949441475 0.6880468239152183
-0.6948076559048758 -0.26560286127038 0.6683542783441715
-0.6765922586849774 -0.3635810142708387 0.6403372248662013
-0.6539356351072608 -0.4535877824330774 0.6054967454613656
-0.6280668692850279 -0.534686683665819 0.5653690458602694
-0.6002179388912914 -0.6066296437532049 0.5212858152232318
-0.5715058906737073 -0.6697185401666366 0.4741920432507498
-0.5428556087939953 -0.7246276008138647 0.4245263574145223
-0.5149573629178825 -0.7722205767129389 0.3721482168139408
-0.4882451640185038 -0.8133746753734277 0.3162883135269384
-0.4628794782688293 -0.8487993277992596 0.2555039916030684
-0.4387190748822312 -0.8788154291928051 0.1876406532368298
-0.4152717284533413 -0.9030422335516998 0.1098367696599419
-0.391628374577042 -0.9199339965822261 0.0186723902700262
-0.366423253072963 -0.9261483058273066 -0.08934939966578657
-0.3379461568955058 -0.9158699212703989 -0.2167364352196256
-0.3048394701600989 -0.8804139765599275 -0.3632411420949518
-0.2704004703683858 -0.8081213806080676 -0.5232813964098725
0 0 0
0 0 0
-0.2992380326093301 0.8299912138514344 -0.4707134847967706
-0.3116957924046495 0.8973460355232528 -0.3124353141498862
-0.3290506162220667 0.9288842408882699 -0.1699992911552864
-0.3469865814582718 0.936666817670521 -0.0474929990933443
-0.3648388575473438 0.9293804218415662 0.05607708552644819
-0.3828940610736045 0.9125207660156306 0.1438679588539739
-0.4015556268819039 0.8891228620965874 0.2195759882515691
-0.4211412365290566 0.8605174392338608 0.2866178565078862
-0.4418485936034159 0.8269287405295959 0.34779114194703
-0.4637485252704546 0.787888912879795 0.405176956736896
-0.4867699805221098 0.742514676409339 0.4601379590723188
-0.5106735388559147 0.6897071382558512 0.513338679773208
-0.5350196493364858 0.6283273153082857 0.5647643399342287
-0.5591421465243795 0.5573834739601331 0.6137456500344767
-0.5821413743614587 0.4762451027542542 0.6590159500035951
-0.6029135835205289 0.3848719088796296 0.6988339034146694
-0.620230773547 0.2840175112158008 0.7311961712619068
-0.6328745205903026 0.1753454421717791 0.7541377971545898
-0.639808524331604 0.06139348069856829 0.7660782549585449
-0.640353347724168 -0.05464777018638158 0.7661339382066993
-0.6343144900328417 -0.1693168988298446 0.7543055849621023
-0.622022678654059 -0.2793344929563162 0.7314779752561701
-0.6042736679311594 -0.3820052774432033 0.6992319373788382
-0.5821892938517539 -0.4754720800416473 0.6595315968361674
-0.5570436415650889 -0.5587855588930047 0.6143786133684476
-0.5300994635870968 -0.6318149942275818 0.5655124859575362
-0.5024848843774433 -0.6950602693106124 0.514198563784503
-0.475119725433849 -0.7494282554245895 0.4611057757986986
-0.4486841056114394 -0.7960174675645481 0.4062496334814171
-0.4236131837729665 -0.8359268155823857 0.3489673760167591
-0.4001000221913974 -0.8700771472183486 0.2878988192591675
-0.3780908198543159 -0.8990115506506732 0.2209650735717356
-0.3572630513735911 -0.9226218996432896 0.1453682992328031
-0.3369942597136051 -0.9397379244332845 0.05768450660186836
-0.3163808282531477 -0.9475256929865801 -0.04580646945741152
-0.2945177867651639 -0.9407048727895359 -0.1683259207281279
-0.2716850385224773 -0.9107326442390336 -0.3110519097520816
-0.2531791667772171 -0.84530978455079 -0.4704802627663463
0 0 0
0 0 0
-0.2498127748519028 0.8704221194060683 -0.4242156427684389
-0.26192263164749 0.927258115523204 -0.2675610626141427
-0.2765591461494905 0.9522046483124691 -0.1296971334039091
-0.2912417583539608 0.9565748220082697 -0.01195190741009722
-0.3059396256439311 0.9480066672246108 0.08766016403439179
-0.3210229048581752 0.9312021187174274 0.1726467742316454
-0.3368312443438234 0.9086519108995877 0.2467719952756356
-0.3536109409033514 0.8813248947837734 0.313409847177488
-0.3715194599496113 0.8491938589105484 0.3752906618440701
-0.3906251091580381 0.8115905952121271 0.4344338037704884
-0.4108892768183371 0.7674409804394927 0.4921426050828898
-0.4321339029517855 0.7154407830870475 0.5490034388011142
-0.454001226794106 0.6542244574566833 0.6048745699192141
-0.475916160931652 0.5825641623084956 0.6588799621766305
-0.4970659380628729 0.4996149302365967 0.7094437079165311
-0.5164153363564093 0.4051921381800779 0.754410055296821
-0.5327748677939027 0.3000314167433321 0.791285087193091
-0.5449295853655111 0.1859503544354305 0.8176027230132671
-0.5518161775722976 0.06582489606655974 0.831363933080648
-0.5527108715957352 -0.05667096779519696 0.8314439811731381
-0.5473733391411459 -0.177535192084738 0.8178408666537194
-0.5360977553434372 -0.2929999586010137 0.7916755781098288
-0.5196541973536485 -0.4000240044842456 0.7549439124922612
-0.4991437898975744 -0.4965886487548478 0.7101092809804136
-0.4758165383001069 -0.5817579985680751 0.6596637423583092
-0.4509020970262177 -0.655544968375395 0.6057624066703553
-0.4254862336439958 -0.7186663183118245 0.5499819887083335
-0.4004423110766542 -0.7722687717946686 0.4932006687042723
-0.3764086745330321 -0.8176803241003737 0.4355633103412095
-0.3537937599858895 -0.8562052236503126 0.3764871716127446
-0.3327893046966931 -0.8889502696424195 0.3146723641856088
-0.3133746991695406 -0.9166471112481374 0.2481015343782549
-0.2953004964289818 -0.9394183279652765 0.1740425864313688
-0.2780500569596968 -0.9564242016133131 0.0891117971597773
-0.2608103431842481 -0.9653331742855 -0.01047986221256395
-0.2425840607411341 -0.9616097399179065 -0.1282952905190098
-0.2229138520633705 -0.9377178188503198 -0.2664483191331252
-0.2049897358923207 -0.8821701569245153 -0.4239752615549309
0 0 0
-0.08169755559720955 0.8284197024677407 -0.5541175921884273
-0.1681860656995144 0.9064018422006455 -0.3874908357107227
-0.200331336475831 0.9515064372503551 -0.2334584663209769
-0.2179984664151965 0.9709078041141428 -0.09906919072484148
-0.231377152695194 0.9727452081167569 0.01521095975116216
-0.243579873205893 0.9633946784586624 0.1119800825438648
-0.2557645016707555 0.9468630971992403 0.1950251133761271
-0.2684543889582296 0.9252066257963689 0.2681882559538366
-0.2819312108040785 0.8991109781175722 0.3348346478532473
-0.2963639093508054 0.868350401989035 0.397663189897919