# OOMMF: rectangular mesh v1.0
# Segment count: 1
# Begin: Segment
# Begin: Header
# Title: 
# Desc: time = 1.7799999999999999e-09
# Desc: stepsize = 8.896463627998646e-14
# Desc: step = 11390
# meshunit: m
# valueunit: (none)
# valuemultiplier: 384000.0000000001
# xmin: 0
# ymin: 0
# zmin: 0
# xmax: 9.357999999999999e-08
# ymax: 9.357999999999999e-08
# zmax: 2.3395e-08
# ValueRangeMaxMag: 1
# ValueRangeMinMag: 0
# meshtype: rectangular
# xbase: 1.16975e-09
# ybase: 1.16975e-09
# zbase: 1.16975e-09
# xstepsize: 2.3395e-09
# ystepsize: 2.3395e-09
# zstepsize: 2.3395e-09
# xnodes: 40
# ynodes: 40
# znodes: 10
# End: Header
# Begin: Data Text
0 0 0
0 0 0
0 0 0
0 0 0
0 0 0
0 0 0
0 0 0
0 0 0
0 0 0
0 0 0
0 0 0
0 0 0
0 0 0
0 0 0
0 0 0
0 0 0
-0.836423316191733 0.03188606291319276 -0.5471556589515634
-0.8463431147230214 0.05041495691444034 -0.5302467956341176
-0.8569903198949939 0.03112424665141976 -0.514391750397163
-0.8626511011092998 -0.003884756123695425 -0.505784525687344
-0.8615203034166594 -0.04341793000852331 -0.5058632721938227
-0.8536657118201457 -0.0788240389165721 -0.5148219336348073
-0.8410811645783501 -0.09880647337894449 -0.5318080061544223
-0.829893917751629 -0.08070218745430663 -0.5520536588221677
0 0 0
0 0 0
0 0 0
0 0 0
0 0 0
0 0 0
0 0 0
0 0 0
0 0 0
0 0 0
0 0 0
0 0 0
0 0 0
0 0 0
0 0 0
0 0 0
0 0 0
0 0 0
0 0 0
0 0 0
0 0 0
0 0 0
0 0 0
0 0 0
0 0 0
0 0 0
0 0 0
0 0 0
-0.779819578291344 0.2428584104601454 -0.5769759247856721
-0.8079301551852839 0.272541371416836 -0.5224653722578299
-0.8452140024605034 0.2552767420644801 -0.4695179176619788
-0.8821915565283992 0.2070565306128044 -0.4229251124260517
-0.9146620701443586 0.1251724657019599 -0.3843502976053583
-0.9281194711881403 0.0844327622740367 -0.3625815161535715
-0.9365910302194571 0.04535053889628194 -0.3474774391730668
-0.9405900937209627 0.002308127039858211 -0.3395363723425787
-0.9395913049392901 -0.04259196273142052 -0.3396381963106724
-0.9336082567756326 -0.08595513004086269 -0.3478323425157905
-0.9231616839765332 -0.1256403152352309 -0.3633001739955579
-0.9075387423601219 -0.1670667572499404 -0.3853078376277825
-0.8717318885649411 -0.248846486165386 -0.4220887830565286
-0.8314482684363349 -0.2984688866526302 -0.4686257575235909
-0.7912434913998221 -0.3175821270701611 -0.5225661009700221
-0.7611543917970015 -0.289606353483193 -0.580320731897719
0 0 0
0 0 0
0 0 0
0 0 0
0 0 0
0 0 0
0 0 0
0 0 0
0 0 0
0 0 0
0 0 0
0 0 0
0 0 0
0 0 0
0 0 0
0 0 0
0 0 0
0 0 0
0 0 0
0 0 0
0 0 0
0 0 0
-0.7521012713471702 0.3366466374036802 -0.5665798435902611
-0.7900688738212869 0.3651428915060201 -0.4924041464096195
-0.8457144251939617 0.3280452422363411 -0.4208959848524891
-0.8800256687738971 0.306946323960908 -0.3624069211617516
-0.910433678396766 0.2737768081489338 -0.3100915615761185
-0.9375239013432706 0.2249894096204482 -0.2653840612560126
-0.9590630962367112 0.1639090867798612 -0.2309367634393547
-0.971686596947125 0.1104403267822701 -0.2088733863696866
-0.9790097834406891 0.05973316958679337 -0.1948635224420668
-0.982155353948845 0.008759632536349881 -0.1878673189978682
-0.9812536078597319 -0.04268517056700515 -0.1879343855602926
-0.9762873752007857 -0.09388441904967601 -0.1950607005095203
-0.9670644881011189 -0.145037707074361 -0.2091658179061103
-0.9523140351768211 -0.1991265027361059 -0.2311852380956185
-0.9282004603041566 -0.2609044799032494 -0.2652786419174495
-0.8984193964163356 -0.310881913224263 -0.3101532269265119
-0.8653632980552375 -0.3455713172844164 -0.3629419058875333
-0.8284440362512195 -0.3683819378161919 -0.4218711019856362
-0.7697897926978423 -0.4065779678439398 -0.4920549066131798
-0.7294064886782734 -0.3802356619956244 -0.5686712720199437
0 0 0
0 0 0
0 0 0
0 0 0
0 0 0
0 0 0
0 0 0
0 0 0
0 0 0
0 0 0
0 0 0
0 0 0
0 0 0
0 0 0
0 0 0
0 0 0
0 0 0
0 0 0
0 0 0
-0.7554889926634064 0.4171310221949895 -0.5052109384079032
-0.8069909242847692 0.4169814605563277 -0.4182010397814969
-0.8470647608050266 0.4072697286893974 -0.341485957391497
-0.8854404512042204 0.3761349303679243 -0.2729793426770292
-0.915282333442201 0.3400597937690399 -0.2159110621305854
-0.940205169529519 0.2966445583898953 -0.1673805399908612
-0.9612106606904943 0.244714147240915 -0.1272362052054939
-0.9776957602523085 0.1864872346461506 -0.09661010143194805
-0.9888212807595508 0.1283680848270923 -0.07585584693921696
-0.9954850295962742 0.07105651610031187 -0.06293272097558605
-0.9982960139676671 0.01391526318384013 -0.05666951514519572
-0.9974511465663575 -0.04330852174973113 -0.05670610335150354
-0.9929291672900004 -0.1005905983515891 -0.06303332664595285
-0.9844817294156387 -0.158180528971446 -0.07599108303680273
-0.9714330166631903 -0.2167036624154269 -0.09673374195385152
-0.9528411974258835 -0.2754646310888587 -0.1273298453116442
-0.9296303064399131 -0.3281669330779952 -0.1676125215567608
-0.9024163723648857 -0.3726180492626497 -0.2163341865066576
-0.8701083526359369 -0.4100498233956956 -0.2734421273438579
-0.8289282825783545 -0.4428684273400402 -0.3416803453625318
-0.7859563956239596 -0.4547535821671904 -0.4188934514693469
-0.7317899727307344 -0.4561116631857556 -0.5064045680250864
0 0 0
0 0 0
0 0 0
0 0 0
0 0 0
0 0 0
0 0 0
0 0 0
0 0 0
0 0 0
0 0 0
0 0 0
0 0 0
0 0 0
0 0 0
0 0 0
-0.6497349931271439 0.5061861335249742 -0.567115541078806
-0.7014077131234211 0.5419382237641258 -0.4629580775776102
-0.7819345861232307 0.5073999234316404 -0.3621099566787095
-0.831808131241337 0.4810487122168643 -0.2769248440918411
-0.8687242982390039 0.4513853322069996 -0.2038856922825297
-0.8997581734200062 0.4129646339119699 -0.141051198158138
-0.9253657447345992 0.3685875377653482 -0.088552049529406
-0.9468307264601931 0.3185857408355345 -0.04488542265743035
-0.964738841584253 0.2630398448804472 -0.00943438095180126
-0.9789642535923274 0.2032651667560679 0.017670941458917
-0.9892115347100779 0.1418422145690313 0.03662411449693755
-0.9956155757558599 0.07997356245231808 0.0485165396644525
-0.998366279138479 0.01794375410698398 0.05424752867860905
-0.9975508572617324 -0.04417136387852132 0.05423262661436867
-0.9931529173912859 -0.1062890325795535 0.04847601706493572
-0.9850531551962449 -0.168324195939358 0.0365683811412418
-0.9730361195752505 -0.2299797212796467 0.01760789033570815
-0.9569617856629105 -0.2900578368353713 -0.009517986721910482
-0.9371446240453568 -0.3460227833882361 -0.04503539717982275
-0.9136845440245723 -0.3966157398534796 -0.0887496980901117
-0.885908860062774 -0.4418504929887196 -0.1411865202769062
-0.8524071603751313 -0.4815109305936323 -0.2038363477401889
-0.8126382311941497 -0.5128711995668995 -0.2767349595848943
-0.7593428959595124 -0.5410841391425099 -0.3614226344935106
-0.67457496760682 -0.5771169856973304 -0.4603092415951314
-0.6192436485762988 -0.5440652581147671 -0.5661539530997065
0 0 0
0 0 0
0 0 0
0 0 0
0 0 0
0 0 0
0 0 0
0 0 0
0 0 0
0 0 0
0 0 0
0 0 0
0 0 0
-0.6280344660979715 0.55187318233279 -0.5486425977035637
-0.6914690573933614 0.5758925293722427 -0.4361402724821183
-0.7430452526628601 0.5816465446007766 -0.3310151803908141
-0.7950818325791631 0.559280493529918 -0.2346278096464499
-0.8358974455714706 0.5270372069316265 -0.1533207193982606
-0.8684121309064813 0.4884641819114574 -0.08522390441674786
-0.8957062127219656 0.4437596298297997 -0.0280672660690648
-0.9189549452804028 0.3938834283743121 0.01943330637821894
-0.9388461652395361 0.3393174890094721 0.0585791743482631
-0.9556350536735626 0.2804202431304382 0.09014505772915485
-0.9692109329465043 0.2180256622027883 0.1144332909515498
-0.9793286985343411 0.153455427312413 0.1317828974313359
-0.9858503659973061 0.08772402738773404 0.1428409986028278
-0.9887240444043809 0.02142088235757078 0.1482090072015412
-0.9879273967005665 -0.04508182482444809 0.1482129816140917
-0.9834478505588246 -0.1114596329792259 0.1428533354436075
-0.975286430653342 -0.1773247348589939 0.1318040841197695
-0.9634846971528965 -0.2420656323606721 0.1144616441521736
-0.9481839373107842 -0.3046566930996417 0.09017494316831608
-0.929635143036151 -0.3637903931270718 0.0586093055803027
-0.9079276452460086 -0.4186731209595472 0.01949894315162836
-0.8827455565159189 -0.4690228705200116 -0.02788959269277127
-0.8533017835856773 -0.5144667380533745 -0.08485305867334603
-0.8182876636425555 -0.5541540910144332 -0.1527041025721794
-0.7744281849816663 -0.5879408755182373 -0.2336375680425776
-0.7186573566741689 -0.6123402678801083 -0.3295011381325006
-0.66306135531832 -0.6093022241145032 -0.4348568026058141
-0.5960377858609792 -0.5874355020730732 -0.5474107130209434
0 0 0
0 0 0
0 0 0
0 0 0
0 0 0
0 0 0
0 0 0
0 0 0
0 0 0
0 0 0
0 0 0
-0.5850748767041137 0.596662071815923 -0.5492556423979602
-0.6539224306781786 0.6247666228720068 -0.4266756632397143
-0.7073888201751105 0.6334575906965726 -0.31358019369877
-0.7514506515553071 0.6247458978321528 -0.2121661646422472
-0.7910529180630786 0.5992624070703727 -0.1229627923239818
-0.8249727079716402 0.5631576612394108 -0.04768102022079406
-0.8540419059234822 0.5199868739139227 0.01503575351659342
-0.8794515753122438 0.471214989154311 0.06724106392015944
-0.9018562173528261 0.4176509893375385 0.1105577420510534
-0.9215217663719274 0.3597389608362201 0.1462378684173116
-0.9384230632452996 0.2978472585054788 0.1750690291572977
-0.9523226144864028 0.2325689342016425 0.1974672853464442
-0.9628936716312878 0.16476215878468 0.2137503407366389
-0.9698495687321523 0.09528508789350149 0.2243046278059937
-0.9729935200545002 0.02485785650080968 0.2294900801824288
-0.9722217785986762 -0.04590955757811897 0.2295149793399283
-0.9675210705282984 -0.1164364280361912 0.2243781101398881
-0.9589733913098023 -0.1860910689014533 0.2138694668130322
-0.946766032988889 -0.2541194528320472 0.1976294068979169
-0.9311892706017343 -0.3196327032438098 0.1752754327715792
-0.9125776576243602 -0.3817584200062356 0.1465009472978874
-0.8911649440941317 -0.4399133101854077 0.1109113246671407
-0.8669498110630598 -0.4937706679812359 0.06773885546042695
-0.8396084509589113 -0.542964149666901 0.01573471496010869
-0.8083858511201333 -0.5867948887214398 -0.04673408048919231
-0.7719352452909951 -0.623938700387801 -0.1217229445746068
-0.7292512614616435 -0.6510201019858595 -0.2106310149691213
-0.681492245533763 -0.6620345083215946 -0.3118952212983289
-0.623769661315046 -0.6561187679604132 -0.4247582511888635
-0.5508848109331842 -0.6303833390525313 -0.5469394581926694
0 0 0
0 0 0
0 0 0
0 0 0
0 0 0
0 0 0
0 0 0
0 0 0
0 0 0
-0.5417349431346898 0.6194776565584619 -0.5681291089283231
-0.6071221116894967 0.6636947397838964 -0.4369348165125684
-0.659976157425506 0.6825215844301632 -0.3139996153131451
-0.7033333284015796 0.6808355620717068 -0.2044142034645797
-0.7402572613226878 0.6634211765032815 -0.1090482903398099
-0.7732819305848151 0.6334802386457911 -0.02716326704011614
-0.8030764060615647 0.5944017664371383 0.04189064434512976
-0.8301348661357462 0.5485828031518111 0.099664497750642
-0.8548596784220623 0.4973127139442449 0.1479695737560181
-0.8774035281088536 0.4412476367952808 0.1883177418214113
-0.8976818423976055 0.380746488505255 0.2218094256801489
-0.9154233816331023 0.316127539142771 0.2491252924834221
-0.9302289088407699 0.2478654460126056 0.2706231657302868
-0.9416510026046357 0.1766472758535351 0.2865120053805928
-0.9492825993368368 0.1032800644192922 0.2969777346702025
-0.9528198069851558 0.02859551119844163 0.302186551911348
-0.9520938663668244 -0.04658199118366797 0.3022373036606103
-0.947085574728505 -0.1214241062214356 0.2971280878165216
-0.9379310066500451 -0.1950782225479905 0.2867575872613471
-0.9249161836796702 -0.2666653394643308 0.2709606058005619
-0.9084479462868859 -0.33532636192358 0.2495567267901937
-0.8889864061536359 -0.4003310277188554 0.2223471113363234
-0.8669465006480008 -0.4611806496473104 0.188987230798989
-0.8426070325486525 -0.5175613732320367 0.1488073037109464
-0.816038636757273 -0.5691559425977403 0.10070976280882
-0.7870352402644896 -0.6153951452945816 0.04317807000871607
-0.7550815539391201 -0.6551305857219177 -0.02560786114731711
-0.7195055864704148 -0.6861599554560253 -0.1072204577795184
-0.6794212562304205 -0.7052990740683484 -0.2023362861688608
-0.632091353912445 -0.7094538902152114 -0.3116660038689408
-0.5745598148091202 -0.6936596706460991 -0.4344160224089973
-0.5048522871544506 -0.6520740130332576 -0.5656179361385414
0 0 0
0 0 0
0 0 0
0 0 0
0 0 0
0 0 0
0 0 0
0 0 0
-0.5750281290590094 0.674819857493446 -0.4625589808050646
-0.6103290745179126 0.7193215652546506 -0.3317753857019944
-0.6490810454587311 0.7303207031381894 -0.2128977853194839
-0.6842694450961212 0.7209689339957138 -0.1094491787129059
-0.7159515988975861 0.6978355196220662 -0.02094983507787973
-0.7452695381025118 0.6645493013562876 0.0542912667317507
-0.7728834611115342 0.6234856236841615 0.117969625749289
-0.7990764467419724 0.5761543102375661 0.1718227082108107
-0.8238842665079528 0.5233818153263675 0.2174538819757613
-0.8471361197697592 0.4655732369983067 0.2561287870825033
-0.86848885269178 0.4029543307785863 0.2887125214757701
-0.8874663962235088 0.335770602582412 0.3156920936854479
-0.9035077442016581 0.2644338117480239 0.3372662381147
-0.9160312090312244 0.1895827190261049 0.3534759068557033
-0.924510075012956 0.1120538714790999 0.3643144947515587
-0.9285411927472008 0.03281663668766164 0.3697760426638202
-0.9278939593300362 -0.04708311600751017 0.3698594062963005
-0.9225380247518012 -0.1265631090121511 0.3645618909379075
-0.9126506627455434 -0.2045414765487477 0.3538807032904988
-0.8986014012230651 -0.2799859409325491 0.3378215425340111
-0.880909175911235 -0.3519846392992403 0.3163950655316424
-0.8601723967715799 -0.4198260753938263 0.2895678059654645
-0.836985753451976 -0.4830411437867507 0.2571499599992484
-0.8118640085150703 -0.5413536485845746 0.218661973927819
-0.7851775278264872 -0.5945446535219917 0.1732423295984563
-0.7570908798706224 -0.6422642258299467 0.1196246790415153
-0.7275025596901932 -0.6837993144658239 0.05620074003326227
-0.6959814193182349 -0.7178142083722363 -0.01877834451475304
-0.6616302776203941 -0.7421523884663064 -0.1070290055532439
-0.6230208988613387 -0.753404674434932 -0.2103006327180288
-0.5799794288987956 -0.7450959006224054 -0.3293265263077254
-0.5403054884015615 -0.7036113785372607 -0.4615203215417988
0 0 0
0 0 0
0 0 0
0 0 0
0 0 0
0 0 0
0 0 0
-0.4539334620505308 0.7316230862964819 -0.5085981435562164
-0.5391050986189161 0.7596144648665207 -0.3638015357425504
-0.5860528214681678 0.775124668404077 -0.2360589733110546
-0.622093626392425 0.7730395792401761 -0.1241343180997632
-0.6532959825206277 0.7565851855177683 -0.02798600145522318
-0.6819533466016149 0.7294093961451874 0.05386618488412148
-0.7092922391195535 0.6940012740501429 0.1235586951272465
-0.7358978097056533 0.6518568327661137 0.1831313278676051
-0.7619204501953714 0.6037904544041499 0.2343380352066488
-0.7872166647978731 0.5501678701389251 0.2785771658469366
-0.8114308874618344 0.4911101864351964 0.3168449141969715
-0.8340455579516277 0.426675996777674 0.3497364736983203
-0.8544224074171445 0.3570178771926317 0.3774924967047132
-0.8718500658704267 0.2825026270340799 0.4000871509566082
-0.8856074092932203 0.2037744604112635 0.417343366892357
-0.8950409038779236 0.1217525569523983 0.4290432323914947
-0.8996430040513071 0.03758055719188213 0.4350059390200173
-0.899116517212698 -0.04744725886919906 0.4351301484626262
-0.8934146694063354 -0.1319692977882768 0.4294116124778612
-0.8827511130206728 -0.2146456082929219 0.4179446557874913
-0.867577099471577 -0.2942510624751881 0.4009068329483897
-0.8485271285882623 -0.3697653274322935 0.378517258098818
-0.8263415694623024 -0.440440942722127 0.3509578130667882
-0.8017820972814943 -0.5058214811204319 0.3182610527790364
-0.775554601358626 -0.5656915417538644 0.2801930404196332
-0.7482423170375609 -0.6199678260609062 0.2361637771623238
-0.7202400864231169 -0.668552641483816 0.1851798678966826
-0.6916755611616641 -0.7111600132592797 0.1258425748018444
-0.6622977510091832 -0.7471154742419432 0.05639288214317261
-0.6313132218438618 -0.7751177162123519 -0.02522185438999998
-0.5971829673336216 -0.7929002095705726 -0.1211683175980918
-0.5572824448464059 -0.7969678882590048 -0.2329773846320592
-0.5054648304007799 -0.7838818523171724 -0.3606030322053727
-0.4152226159954882 -0.7574879512735756 -0.5037878351461297
0 0 0
0 0 0
0 0 0
0 0 0
0 0 0
-0.3781179655377367 0.7287834349529316 -0.570877840764387
-0.4527922839624164 0.7857933013688706 -0.4213170244695903
-0.5110353190364639 0.8129282624822122 -0.2792678691775173
-0.552379361604182 0.8190051947853658 -0.1552660033244268
-0.5850317453582096 0.8095112355959879 -0.04928911002426137
-0.6136084357095859 0.7885638583416184 0.04064146827336324
-0.6404314921851451 0.7590343360521503 0.1171084134952702
-0.6666638327456469 0.7226237931957217 0.182686035635761
-0.6928050050724051 0.6801682905233126 0.2395669457859728
-0.7189255583771518 0.631951888068517 0.2894526777881604
-0.7447967706301921 0.5779449383314594 0.3335527225430516
-0.7699663860025495 0.5179892383319324 0.3726109410611517
-0.7938066634504688 0.4519552476847201 0.4069489343294525
-0.8155555326191561 0.3798807567684742 0.4365315382092061
-0.8343670193660601 0.3020844198825385 0.4610603867807626
-0.8493805189201558 0.2192367830538645 0.4800916235835813
-0.8598082845713695 0.1323736393592693 0.4931601498349402
-0.8650292988005347 0.04285065675523335 0.4998881209153703
-0.8646717052317978 -0.04775030459829041 0.5000627466451636
-0.8586667470913515 -0.1377475815809402 0.4936770414027361
-0.847262584415392 -0.2255016689591671 0.4809315027593643
-0.8309943249181221 -0.3095532832462917 0.462196058816294
-0.810616029011755 -0.3887364387803051 0.4379333678467755
-0.7870092945320039 -0.4622453172758701 0.408589815067345
-0.7610872296740696 -0.5296400873064959 0.3744697674646338
-0.7337083758268202 -0.5907908737610637 0.3356160942538483
-0.7056038247292542 -0.6457751913512367 0.2917150060636597
-0.6773095297235723 -0.6947471655180644 0.2420292894470593
-0.6490884700708563 -0.7377859427363105 0.1853538797051965
-0.6208228697293015 -0.7747139669126489 0.1199884739945522
-0.5918532427340311 -0.804858237670858 0.0437373560994767
-0.5607241629495895 -0.8267249167711759 -0.04598179068038352
-0.5247101580222584 -0.8376458193812759 -0.1517522037445485
-0.4788078175745145 -0.833580338674597 -0.275475757199566
-0.4147921982808915 -0.8088117046077922 -0.4168585596275348
-0.3344617717958367 -0.7540004329894054 -0.5653482734200028
0 0 0
0 0 0
0 0 0
0 0 0
-0.4047513901751512 0.7691628765463639 -0.4945349143328557
-0.4411220711286101 0.8287771188662967 -0.3442961016434624
-0.479830599288543 0.8527090824450507 -0.2065183204999423
-0.5128084945981755 0.8540267027667618 -0.08755477616490162
-0.5412851344997408 0.8407381436430784 0.01302985008307868
-0.5674229029606095 0.8175739143754467 0.09800073330625525
-0.5927356618692078 0.7871381489118621 0.170522636843556
-0.6180728745144873 0.7506637795667721 0.2334305289286884
-0.6437969937215834 0.7085326736681057 0.2889755720121975
-0.669915478882971 0.6606340038022323 0.3387860153153193
-0.6961606138763695 0.6066100808367407 0.3839070323848194
-0.7220368188980038 0.5460387465365802 0.4248582345164222
-0.7468533233901798 0.4785878310546893 0.4616966550749651
-0.7697588348291092 0.4041567306807953 0.4940937899305585
-0.7897926291776671 0.3230008672996704 0.5214384360787842
-0.805961263760658 0.235820097059503 0.5429689891146354
-0.8173402394521323 0.1437884000113416 0.5579245728541711
-0.8231879539413186 0.04850969921515419 0.5656928509075931
-0.8230499821239344 -0.04810006705871275 0.5659285383109234
-0.8168296539181893 -0.1439881674507693 0.5586203756703294
-0.8048070609215575 -0.2371666320625988 0.5440933590174464
-0.787601344654553 -0.3259021058767045 0.5229454458004857
-0.76608593333065 -0.4088580772284428 0.4959308575174236
-0.7412776125828764 -0.4851658349224272 0.4638120456687761
-0.7142232890442113 -0.5544180131919092 0.4272069288239652
-0.6859017946133937 -0.6165969162417357 0.3864543582718504
-0.6571460746783679 -0.6719602500365961 0.3415090905167354
-0.6285795128156565 -0.720904858461263 0.2918629491994107
-0.6005528082432069 -0.7638149352431316 0.2364805895009741
-0.5730642748045663 -0.8008815920574593 0.1737412226451318
-0.5456457557599016 -0.8318588358396692 0.1013981580536618
-0.5171996935008769 -0.8557034252322894 0.01661701201558972
-0.4858142282105219 -0.8700384674989485 -0.08377112115935702
-0.4488492436409345 -0.8703496603338092 -0.2025483281584508
-0.4048126245602222 -0.8487305883738515 -0.3402691983639426
-0.3627185010569776 -0.7918314902323229 -0.4913635925335104
0 0 0
0 0 0
0 0 0
-0.2878204462017763 0.7600265896940129 -0.5826825668460475
-0.3667498218941169 0.8278178131643574 -0.4245141179612456
-0.4084947932127206 0.8699658499663061 -0.2762090219571018
-0.4403280111379073 0.8862132284298535 -0.144004709517679
-0.467490170793299 0.8834639799840829 -0.03073005503307273
-0.4921892723861602 0.8680671961272052 0.06487729306802364
-0.5159006981330326 0.844130383813376 0.145912181770172
-0.5395926712232111 0.813821364735409 0.2157186488516831
-0.5638198595950401 0.7779916554939843 0.2771933439099115
-0.5888100972927018 0.736683849847438 0.3325651435435111
-0.6145225150334754 0.6894815550066405 0.3833761388278575
-0.640678064368034 0.6357489498345051 0.4305286176573552
-0.6667738107355291 0.5748130982263363 0.4743443764024832
-0.6920942482389587 0.5061263153314131 0.5146277338849872
-0.7157337449650394 0.4294249735168087 0.5507444039102056
-0.7366439824180766 0.344879349392393 0.5817335107503402
-0.7537158936923322 0.2532110729159319 0.606462285841693
-0.7658958370295887 0.1557449491561933 0.6238165416475264
-0.7723217368869567 0.05436645976939251 0.6329008001133014
-0.7724522019421924 -0.04862531165161933 0.633208634481117
-0.766156521660559 -0.1507506812385164 0.6247226716096642
-0.7537404736631411 -0.2496220769806507 0.6079178538634388
-0.7359005655448021 -0.3431957562651613 0.5836668831726055
-0.7136202835397569 -0.4299496677726839 0.5530726662047177
-0.6880365340098363 -0.5089592237248134 0.51726805087224
-0.6603069042431908 -0.5798732177106902 0.4772230543368831
-0.6314995627216625 -0.6428146801571578 0.433586887782368
-0.6025133886854526 -0.6982400525418069 0.3865726910701104
-0.5740232301583138 -0.7467828152217505 0.3358761053247044
-0.5464373553039641 -0.7890905413739143 0.2806106452767455
-0.5198513002188764 -0.8256422471354967 0.219247589281594
-0.4939827019616853 -0.8565105793148126 0.1495684381292936
-0.4680770356102227 -0.8810145114565797 0.0686827441011942
-0.4407957018167859 -0.8972086516372948 -0.02675415270633827
-0.410146535719549 -0.901233640562387 -0.1398490055592767
-0.3734239484797294 -0.8869240886404177 -0.2718827241499033
-0.3253916358978917 -0.8472315813147079 -0.4199034780883255
-0.2401993253311235 -0.7813531687638777 -0.5760134631873808
0 0 0
0 0 0
-0.3161249604125683 0.7901066020023709 -0.5251633716058451
-0.344176160046466 0.8647409385701562 -0.3657401810253752
-0.371260600454927 0.9022765111582839 -0.2192319866303316
-0.395259949767001 0.9139813301507922 -0.09169351256210179
-0.417281548605531 0.9086270621682865 0.01652183672592634
-0.4384520119741161 0.892255479775838 0.1078887946259409
-0.4596218494139668 0.8684412844927294 0.1858964521713711
-0.481364686031738 0.838920819136976 0.2539683016837158
-0.504016179359966 0.8042131003296058 0.3149745707221865
-0.5277055201388742 0.7640852041594223 0.3710804290172334
-0.5523669876407328 0.7178689318165425 0.4237391977352087
-0.5777345650534932 0.6646826050442352 0.4737296770248406
-0.6033285596290758 0.6036106621547148 0.5211994029822473
-0.6284455909461978 0.5338778391531289 0.5657124641383374
-0.6521657767934189 0.4550334668640278 0.6063203308591423
-0.6733918988824247 0.3671380500309418 0.641679828839118
-0.6909320670305055 0.2709210289378359 0.6702347908220052
-0.7036270731165886 0.1678634514198673 0.6904569527890876
-0.7105073388631655 0.06016006270609534 0.7011134631974919
-0.7109472887455306 -0.04946079398837185 0.7015038007619193
-0.7047764004478458 -0.1580389438054793 0.6916024274195588
-0.692313527283261 -0.2627400841287252 0.6720637083883043
-0.6743141101306293 -0.3611812877741432 0.6440873840097699
-0.6518477194123535 -0.4516495953201204 0.6091856808429468
-0.6261420593494307 -0.5331804671360098 0.5689153812108442
-0.5984318274697793 -0.6055074163196487 0.5246333163773376
-0.5698390457631334 -0.6689236859965885 0.4773097152127732
-0.5412942004864369 -0.7241030149662248 0.4274054424508094
-0.5134926696948803 -0.7719145526190009 0.3747975475168319
-0.4868725235391713 -0.8132446077388139 0.3187292798070822
-0.4615970905252011 -0.848813839156798 0.2577657705642202
-0.4375269071855177 -0.8789555665425558 0.1897559420216656
-0.4141705671453592 -0.9033023133619082 0.1118377037743364
-0.3906189234220758 -0.9203222644115593 0.02058607036221303
-0.3655049390028259 -0.9266869652494063 -0.08750661690058444
-0.3371150309237133 -0.9165931165107724 -0.2149663105939466
-0.3040843341552282 -0.8813617026190906 -0.3615719387310759
-0.2696960136206109 -0.80932897491461 -0.5217764565413215
0 0 0
0 0 0
-0.2972767000643789 0.8303141101236048 -0.471386298197645
-0.3097154844976554 0.8978064222986715 -0.3130813739934745
-0.327009416483773 0.929490316166701 -0.1706241298388597
-0.3448448003746891 0.937426767857003 -0.04809489120180509
-0.3625600225420174 0.9303063938541404 0.05549994241831664
-0.380446081624459 0.913630542418162 0.1433178667762331
-0.3989116342255814 0.8904398491978767 0.2190579444803092
-0.4182803014022813 0.8620698113874569 0.2861419748188141
-0.4387565891383403 0.8287480163455547 0.347374985989201
-0.4604193587120689 0.7900077904051512 0.4048477556098561
-0.4832072132046307 0.7449638304183591 0.4599344306261714
-0.5068922601140249 0.6925106461022037 0.5133120314892332
-0.5310482023880442 0.6314966710417643 0.5649776643404553
-0.5550231344902418 0.5609105163264276 0.6142708790550361
-0.5779311776326227 0.4800949705407112 0.6599275514643127
-0.5986797112001259 0.3889777994759211 0.7001991680316422
-0.616046685685932 0.2882796647535871 0.7330629686083848
-0.6288123260461778 0.1796363919919028 0.7565221908738213
-0.635930837236607 0.06557038128132466 0.7689554573251751
-0.636706322220579 -0.05072549892181218 0.7694361461508533
-0.6309239849675227 -0.1657687034309178 0.7579285336728875
-0.61889455009968 -0.276243918755831 0.735295065403907
-0.601397699250807 -0.3794130556189549 0.7031120398355609
-0.5795451373551995 -0.4733779419401052 0.6633556797469159
-0.5546068508497407 -0.5571566282719166 0.6180515614115074
-0.5278461943391541 -0.6305973853731593 0.5689686570297232
-0.5003946944345761 -0.6941905780558203 0.5174017695372265
-0.473176616373774 -0.7488429279150302 0.4640454277640399
-0.4468763409048361 -0.7956592441921516 0.4089350841772791
-0.4219324487294404 -0.8357485480055241 0.3514219304708169
-0.398540375766096 -0.8700436937983551 0.290154337837525
-0.3766476810252902 -0.8991006315144371 0.2230573441709809
-0.3559323206568045 -0.922824564827851 0.1473329754744291
-0.3357715103083782 -0.9400590093618775 0.05955293261289251
-0.3152603316717434 -0.9479840895575704 -0.04401237575871169
-0.2934907541274037 -0.9413327697649441 -0.166600701704363
-0.2707357832682169 -0.9115721510783614 -0.3094161421718555
-0.2522767122115184 -0.8464052514714867 -0.4689931883910852
0 0 0
0 0 0
-0.2478691224619544 0.8706083250214781 -0.4249729903573128
-0.2599478575390574 0.9275966115801834 -0.2683125743341449
-0.2745067018640326 0.9526969604813545 -0.1304399176683237
-0.2890699412127922 0.9572239624198357 -0.0126828567957649
-0.3036103444443284 0.9488213876247044 0.08694097499065831
-0.318501960867458 0.9321983269977873 0.1719383030802337
-0.3340887457816837 0.9098525596875582 0.246075251847924
-0.3506218095850233 0.8827592040270777 0.3127307697506007
-0.3682642573456296 0.8508960685997241 0.37464291959572
-0.3870913538718088 0.8135980487886649 0.4338415595179499
-0.4070733558988294 0.7697910758223859 0.491643145484078
-0.4280434691508369 0.7181663530398099 0.5486491391397741
-0.4496577868156705 0.6573472468797729 0.6047333890034646
-0.4713572331534637 0.5860866342332905 0.6590332434156899
-0.4923459401637932 0.503511354968452 0.7099801339629609
-0.5116042083411034 0.4094010883138855 0.755415040156786
-0.5279537193612763 0.3044525350980388 0.7928262887196487
-0.5401833318079863 0.1904484385637097 0.8197141942686289
-0.5472242889186206 0.07024275153217066 0.8340332927855455
-0.5483384036731327 -0.05249225701978623 0.8346074274832262
-0.5432647769949762 -0.1737335739415023 0.8213890840290679
-0.5322752910243367 -0.2896739369038775 0.7954696881990954
-0.5161203995237154 -0.3972236246208444 0.7588366920744928
-0.4958871192098021 -0.494317039338897 0.713965426068399
-0.4728176035432759 -0.5799810227525986 0.6633743490868809
-0.4481389435843799 -0.6542046210978016 0.6092518370734366
-0.4229378392931306 -0.7176939621114483 0.5532078821228316
-0.3980902945187719 -0.7715956619751174 0.4961494249025561
-0.3742376689182336 -0.8172446641275087 0.4382434553051097
-0.3517910131339997 -0.8559560709030518 0.3789225353055201
-0.3309439402467415 -0.8888492614190372 0.3168960379821636
-0.3116769195940657 -0.9166689685832258 0.250150954083567
-0.29374084705315 -0.9395509561953598 0.1759554360765322
-0.2766187741265965 -0.9566688085169853 0.09092218987348563
-0.2594966630253228 -0.965704402345588 -0.008745808657425179
-0.2413751087986319 -0.9621351637706943 -0.126625366686092
-0.2217919577389101 -0.9384356328110345 -0.2648525826811858
-0.2039241820323374 -0.8831248639592016 -0.4224989972052992
0 0 0
-0.07972102457567347 0.8282166633760464 -0.5547086773675471
-0.1662541379475238 0.9064197251675278 -0.3882819123298802
-0.1983693802782004 0.9517095896108962 -0.2343041741213794
-0.2159504841528289 0.9712773815340632 -0.09992815676520973
-0.2291973738621689 0.9732741949344278 0.01434940031591586
-0.2412279983353618 0.9640863556060182 0.1111150383765438
-0.2532042497816492 0.9477302547726904 0.1941519304076145
-0.2656531050271793 0.9262707429363852 0.2673030837261234
-0.2788599786801862 0.9004013374776086 0.3339379339922605
-0.292998158331943 0.8699030337712098 0.3967628902124473