# OOMMF: rectangular mesh v1.0
# Segment count: 1
# Begin: Segment
# Begin: Header
# Title: 
# Desc: time = 1.4e-09
# Desc: stepsize = 8.930916530401108e-14
# Desc: step = 8958
# meshunit: m
# valueunit: (none)
# valuemultiplier: 384000.0000000001
# xmin: 0
# ymin: 0
# zmin: 0
# xmax: 9.357999999999999e-08
# ymax: 9.357999999999999e-08
# zmax: 2.3395e-08
# ValueRangeMaxMag: 1
# ValueRangeMinMag: 0
# meshtype: rectangular
# xbase: 1.16975e-09
# ybase: 1.16975e-09
# zbase: 1.16975e-09
# xstepsize: 2.3395e-09
# ystepsize: 2.3395e-09
# zstepsize: 2.3395e-09
# xnodes: 40
# ynodes: 40
# znodes: 10
# End: Header
# Begin: Data Text
0 0 0
0 0 0
0 0 0
0 0 0
0 0 0
0 0 0
0 0 0
0 0 0
0 0 0
0 0 0
0 0 0
0 0 0
0 0 0
0 0 0
0 0 0
0 0 0
-0.8349046981285916 0.02385071583427552 -0.5498775212690523
-0.8445086755014851 0.04274568197923244 -0.533833217095805
-0.8547352938576019 0.0238224402501934 -0.5185171827188412
-0.8599315291506715 -0.01079803262975821 -0.5102951769945644
-0.8583217781752575 -0.04990067298387209 -0.5106795942132601
-0.8499985852401648 -0.08481224220623999 -0.5199127702429206
-0.8369932506465159 -0.1042002812362037 -0.537200707150013
-0.8255171621578142 -0.08530625159410186 -0.5578926943614445
0 0 0
0 0 0
0 0 0
0 0 0
0 0 0
0 0 0
0 0 0
0 0 0
0 0 0
0 0 0
0 0 0
0 0 0
0 0 0
0 0 0
0 0 0
0 0 0
0 0 0
0 0 0
0 0 0
0 0 0
0 0 0
0 0 0
0 0 0
0 0 0
0 0 0
0 0 0
0 0 0
0 0 0
-0.781000727917594 0.234671955572856 -0.5787632817135165
-0.8088528744545455 0.2645124445929561 -0.5251573041880659
-0.8457634414317299 0.2473725507642898 -0.4727483709817784
-0.882282798860364 0.1992387029694533 -0.4264750896291271
-0.9141521817727603 0.1173871687375823 -0.3880026303723677
-0.9271760098841517 0.07685055232114259 -0.3666587504795676
-0.9352292168729367 0.03805548972641783 -0.3519916072989743
-0.9387965613845822 -0.004639912007335344 -0.3444408331615867
-0.9373572927820123 -0.04913494738200393 -0.3448870287705001
-0.9309379685119591 -0.09202907478372953 -0.3533909282611491
-0.9200705210326598 -0.1311756260637774 -0.3691384448326469
-0.9040208998951327 -0.1720126685858558 -0.3913538736217727
-0.8675576800727052 -0.2533317568194212 -0.4279797807533092
-0.8267206947019693 -0.3023656025632153 -0.4744554092199563
-0.7860683616168508 -0.3207621403134377 -0.5284015331228151
-0.7556938762647954 -0.2918987408489984 -0.5862779975972635
0 0 0
0 0 0
0 0 0
0 0 0
0 0 0
0 0 0
0 0 0
0 0 0
0 0 0
0 0 0
0 0 0
0 0 0
0 0 0
0 0 0
0 0 0
0 0 0
0 0 0
0 0 0
0 0 0
0 0 0
0 0 0
0 0 0
-0.7547138298109153 0.3288607837692504 -0.5676773907694531
-0.7924335825994754 0.3573673704959813 -0.4943051483378943
-0.8476341259571049 0.3201474448677168 -0.423109917229089
-0.8816207167407942 0.2990305409907142 -0.3651378470773036
-0.9116777343512482 0.2658831961649823 -0.3132887401188684
-0.9383569756848174 0.2171264619538963 -0.2689652128120391
-0.9594178340441596 0.1560894337428491 -0.234847840935039
-0.9715947891300074 0.1027568047481361 -0.2131774022108557
-0.9784868959865296 0.05227816768491344 -0.1995755184539272
-0.9812034517768127 0.001614131247628877 -0.1929693778856705
-0.9798739067407555 -0.04944715208140108 -0.1933962410173667
-0.974485350895271 -0.1001928498530381 -0.2008474389402225
-0.964844514835979 -0.1508292677395242 -0.2152338128270796
-0.949657052909659 -0.2043576581143515 -0.2374645856311172
-0.9250277115587713 -0.2655733517517529 -0.2716514820273979
-0.8947531554174704 -0.3149306301611975 -0.3165998879607356
-0.861253334035002 -0.3489215355752907 -0.3694542686522564
-0.8239272985140856 -0.3709610904361303 -0.428405971183546
-0.7647409118083 -0.4084195767437329 -0.4983621044372046
-0.7240459355350125 -0.3811434705785997 -0.5748801075620271
0 0 0
0 0 0
0 0 0
0 0 0
0 0 0
0 0 0
0 0 0
0 0 0
0 0 0
0 0 0
0 0 0
0 0 0
0 0 0
0 0 0
0 0 0
0 0 0
0 0 0
0 0 0
0 0 0
-0.7589783654418383 0.4097985637582529 -0.5059812031418834
-0.8101680736836697 0.4094714119482072 -0.4194768827728562
-0.8499833334317312 0.399606262018258 -0.3432829273996557
-0.8880396819503343 0.3683027624720935 -0.2752064651075137
-0.9175654752009463 0.3321009584463746 -0.2185922050720484
-0.9421439492229937 0.2886038750776185 -0.17050683925486
-0.9627571799886691 0.2366303531138503 -0.1307848934911033
-0.9788031242120429 0.1784103933742748 -0.1005692575729768
-0.9894795024876109 0.1203839617997578 -0.08023724757407864
-0.9956955277426494 0.06326314366328038 -0.06773618447421798
-0.9980631447177488 0.006408461799746856 -0.06187803142859773
-0.9967826679525937 -0.0504397241836094 -0.06229082672103487
-0.9918361297699481 -0.1072659424066491 -0.06895730042992645
-0.9829734068880503 -0.1643316432720926 -0.0822094420999938
-0.9695068389685464 -0.2222788843289302 -0.1031919898766478
-0.9504797971063731 -0.2804292800855076 -0.1339685566218849
-0.9268465977460119 -0.3324778297043034 -0.174395748233029
-0.899234684784054 -0.3762250525277664 -0.223230131325952
-0.8665367286629091 -0.4129054055829987 -0.2803983308055216
-0.8249290153169552 -0.4449402774694739 -0.34859757482459
-0.7815735762982642 -0.4559668662850368 -0.4257193461454903
-0.7269969051471619 -0.4564327565174461 -0.5129762554781006
0 0 0
0 0 0
0 0 0
0 0 0
0 0 0
0 0 0
0 0 0
0 0 0
0 0 0
0 0 0
0 0 0
0 0 0
0 0 0
0 0 0
0 0 0
0 0 0
-0.6544333617800397 0.4996738019905052 -0.5674883845451185
-0.705892197524489 0.5352778784045837 -0.4638898558545281
-0.7860061099035373 0.5003721665220953 -0.3630731195837726
-0.8355949399122932 0.4736913069195375 -0.2782043172595116
-0.8722627765366749 0.443730847722277 -0.2055737907618565
-0.9030229974262489 0.4050341513490699 -0.1431670435549011
-0.9283289438297087 0.3604208326361168 -0.09111638409147449
-0.9494520563576485 0.3102346865225477 -0.04790857915330458
-0.9669693267900643 0.2545651205878455 -0.01291976885493874
-0.9807582606258606 0.1947433939954439 0.01372022992777177
-0.9905425162002044 0.1333727910887876 0.03220593418849811
-0.9964733945355149 0.07166839876498773 0.04363959900514768
-0.9987527815930641 0.009915630473354087 0.04893425724819122
-0.9974773835479323 -0.05181645281920438 0.04851726009994276
-0.9926377250749429 -0.1134568264771874 0.0424015952974279
-0.9841170292945489 -0.1749359750354745 0.0301840568986206
-0.9716973207863949 -0.2359747175730016 0.01096583069736133
-0.9552360013708711 -0.2953917355598605 -0.0163677807879398
-0.9350554406973741 -0.3506593207770528 -0.05205154728166127
-0.9112549373842057 -0.400523069040909 -0.09589426603795431
-0.8831462270314814 -0.4450007434664421 -0.1484152283102114
-0.8492945881734123 -0.4838796004871319 -0.2110905841854789
-0.8091582044606604 -0.5144292336215096 -0.2839464099959454
-0.7554217522195819 -0.5418241669870962 -0.3684624110302641
-0.6700332940304363 -0.5770969677162786 -0.4669202016869676
-0.61435822722571 -0.543067913024543 -0.572399519988661
0 0 0
0 0 0
0 0 0
0 0 0
0 0 0
0 0 0
0 0 0
0 0 0
0 0 0
0 0 0
0 0 0
0 0 0
0 0 0
-0.6333342722821147 0.5459760820866369 -0.5484503781949734
-0.6965150643080528 0.5696656726138464 -0.4362886505942624
-0.7478998870564718 0.5750952402891231 -0.3315286164687928
-0.7996953091642912 0.5523310895373804 -0.2354098129455912
-0.8402949428288968 0.5196668960771563 -0.1544368031840671
-0.8725961264361669 0.480679875898685 -0.08673440513787613
-0.8996475813151099 0.4355840096576671 -0.03001332977897134
-0.9226098987261577 0.3853587317135873 0.01701830381100671
-0.9421611254979949 0.3305046448146328 0.05566950113216416
-0.9585521717337526 0.2713983013812599 0.08672194688700378
-0.9716770691745072 0.2088941418718703 0.110484889157087
-0.9813054377029474 0.1443343457983355 0.1273076374676426
-0.9873175129892267 0.0787459518563914 0.137852107749568
-0.9896790955952833 0.01272024396057544 0.1427357107919556
-0.9883834820038042 -0.0533780632853565 0.1422985413204904
-0.983430579471042 -0.1192391600227938 0.1365515216989854
-0.9748296551113412 -0.1844949762597346 0.1251748666882559
-0.9626261689219885 -0.2485564811006404 0.1075664195250615
-0.9469628046331227 -0.3104199895700558 0.08307151567592765
-0.9280910076932585 -0.3687959353109506 0.05134821844068759
-0.9060934477923384 -0.4229038647129177 0.01212374029210923
-0.8806379367699169 -0.4724700791530249 -0.03533905243151968
-0.8509148754481618 -0.5171246800538293 -0.09233601691790294
-0.815593826492384 -0.5560139092876737 -0.1601725409243065
-0.7713639738882342 -0.5889888335006357 -0.2410182022149181
-0.7151411407278396 -0.6125494582695318 -0.3366842883358039
-0.6591445966930278 -0.6085845171755149 -0.4417615715571362
-0.5917253354931756 -0.585752054089022 -0.5538552685187528
0 0 0
0 0 0
0 0 0
0 0 0
0 0 0
0 0 0
0 0 0
0 0 0
0 0 0
0 0 0
0 0 0
-0.5909303692566737 0.5914687805857197 -0.5486036641170127
-0.6595173777079792 0.6191563443648143 -0.4262420084107028
-0.712814986739958 0.627415433579628 -0.313440055489084
-0.7567492470185611 0.618254638036572 -0.2123482509537279
-0.7962167072070813 0.5922790598155677 -0.1234684999030092
-0.8299959946514479 0.555652475188765 -0.04854869389748438
-0.8589026423688504 0.5119541167110053 0.01375621003256821
-0.8841060680526673 0.4626728516926239 0.06550032625160701
-0.9062449357905484 0.408642982306234 0.1083098765849678
-0.9255754773587028 0.3503344146732054 0.1434427886224718
-0.9420697110129083 0.2881415413549047 0.171694821522592
-0.9554958605006936 0.2226834209304989 0.1934935518531009
-0.9655418008822498 0.1548410773555532 0.209172826897838
-0.971941374169352 0.08548701130322124 0.2191390792995031
-0.9745204869227996 0.01534426385269735 0.2237730415724105
-0.9731973050431626 -0.05498566674097315 0.2233015492775972
-0.9679774620852901 -0.1249401471660451 0.2177374394105137
-0.9589572246284125 -0.1939126945481266 0.2068789699946727
-0.9463327671032893 -0.2611784886174349 0.1903683035332911
-0.9303978909548634 -0.3258783714380489 0.1678185077267301
-0.9114850862650047 -0.3871665781922112 0.1389135639432323
-0.8898185164299219 -0.4444807092873163 0.1032468250838567
-0.8653795096950562 -0.4975074631069312 0.06003855721824749
-0.8378213679810447 -0.5458853984266189 0.008030388470156549
-0.8063638330729384 -0.5889112048766817 -0.05441471751844859
-0.7696336558975437 -0.6252468219556631 -0.1293462304983173
-0.7266148229656237 -0.6514930102741876 -0.2181461817463504
-0.6784970020946068 -0.6616155746719868 -0.3192282091233277
-0.6203832220004679 -0.6547507297035469 -0.4317709344235555
-0.547086309079249 -0.6280330114781173 -0.5534176604624852
0 0 0
0 0 0
0 0 0
0 0 0
0 0 0
0 0 0
0 0 0
0 0 0
0 0 0
-0.5480337810582905 0.6150260969034786 -0.5669231649409168
-0.6131754800091441 0.6587752889415459 -0.4359253942999166
-0.6658844290349025 0.6771100920801878 -0.3132408823445954
-0.7091640038837806 0.6749027679152091 -0.2039428092772924
-0.7460444780006613 0.6569324387705527 -0.1088917248265188
-0.7790270710588201 0.6263935645663615 -0.02734821433590936
-0.8087615297522835 0.5866832700518405 0.04132225349644483
-0.8357212620548429 0.5402188421120581 0.09865888088037178
-0.860287613203697 0.4883160740651855 0.1464671785003375
-0.8825962799809789 0.4316615032357369 0.1862582969641913
-0.9025519027972294 0.3706469289605799 0.2191367536703753
-0.919880220773069 0.3056246359439814 0.2457925168401145
-0.9341882070912066 0.2371023624773166 0.2665986936190635
-0.9450442378396774 0.1657953390996062 0.2817859011002308
-0.9520648223663356 0.09252884639394776 0.2915664359928323
-0.9549740602653595 0.01813940359364143 0.2961342706570111
-0.9536318984550871 -0.05655803138997965 0.2956135844886627
-0.9480451445987748 -0.1307574225379036 0.2900222409642608
-0.9383705118390246 -0.2036382872353459 0.2792708908619387
-0.9249075092096651 -0.2743595695221643 0.263197503824001
-0.9080684738183928 -0.3421012997192653 0.2416161161585116
-0.8883106585749566 -0.4061689839682076 0.2143150258949657
-0.8660377908107338 -0.4660924899228622 0.1809318538156553
-0.841510245452783 -0.521576796585451 0.1407769585608932
-0.8147754058408078 -0.5723123735018331 0.09273394833417246
-0.7856019631849942 -0.617726033128479 0.03527185046514461
-0.7534506814048458 -0.6566537381656959 -0.03343559246657393
-0.7176340024559995 -0.6868674702936342 -0.1149544117091868
-0.6772636386370282 -0.7051525498525449 -0.209937717470173
-0.6295961558904144 -0.7083907356294602 -0.3190474042558011
-0.5716865590823659 -0.6916083684362679 -0.4414208228816209
-0.5016064153830773 -0.6489867753099625 -0.5720202527177822
0 0 0
0 0 0
0 0 0
0 0 0
0 0 0
0 0 0
0 0 0
0 0 0
-0.5813479200908929 0.6705983584276722 -0.4607954399515075
-0.6165851929386005 0.7146137694852045 -0.3303783593261146
-0.655314982528888 0.7250595448605964 -0.2117803817158408
-0.6905292825540743 0.7151026448891094 -0.1086163763341175
-0.7222651286083407 0.6913145504608936 -0.02042734239759845
-0.7516372858508591 0.6573239363223782 0.05446680875916637
-0.7792801621505334 0.6155143556976713 0.1177476403530801
-0.8054514622117502 0.5674145988585368 0.1711391685826428
-0.830163097730103 0.5138790310516085 0.2162349939593927
-0.8532244355143027 0.455347635877276 0.254296270405751
-0.8742789160102364 0.3920861424413578 0.2861902058516688
-0.8928457153496624 0.3243828099284385 0.3124137020117386
-0.9083695664574074 0.2526914304429993 0.3331842909181821
-0.9202857766287763 0.1776869589861745 0.3485705580524768
-0.9280946379214686 0.1002304129246053 0.3586003449334375
-0.9314268377483621 0.021299312782051 0.363304810313734
-0.9300880053026955 -0.05807059140110488 0.3627176709320601
-0.9240817735040134 -0.1368242964878748 0.3568641026613273
-0.9136130485664102 -0.2139207182875736 0.34575876529239
-0.8990697750922466 -0.2883763441874109 0.3294125432169823
-0.8809786245647665 -0.3593297826433097 0.3078291252716078
-0.8599350483290159 -0.4261155838435938 0.2809576869583845
-0.8365212366638407 -0.4883014372466175 0.2485838429851904
-0.8112322298599782 -0.5456356241087608 0.2101999879634861
-0.7844143382494314 -0.5979101485763669 0.1649169493353943
-0.7562067261192778 -0.6447723965193067 0.1114448027442869
-0.7264838935762123 -0.6854938393092723 0.04815961631262439
-0.6947951538608106 -0.7187122438448525 -0.02669091079429587
-0.660229738361796 -0.7422367746060919 -0.1148096816695311
-0.6213509439766013 -0.7526207111293881 -0.2179106917947804
-0.577997476604333 -0.7433529515247007 -0.3366679469425901
-0.5380417553087721 -0.7007825664219208 -0.4684174037579739
0 0 0
0 0 0
0 0 0
0 0 0
0 0 0
0 0 0
0 0 0
-0.4607996977946918 0.7284614078372791 -0.50695918554066
-0.5456812409587237 0.7557868809022941 -0.3619643268634744
-0.5925830036820102 0.770663159861232 -0.2343580119814707
-0.6286861251998678 0.7679257957087762 -0.1226528771216506
-0.6600136822523983 0.7507766864039302 -0.02676390091081939
-0.6888277234104114 0.7228514026506704 0.05479249170449515
-0.7163243863092433 0.6866350752425308 0.124143654793023
-0.7430587743644795 0.6436299843568494 0.1833142140608811
-0.7691516110150215 0.594668295896122 0.2340414859143535
-0.7944313336729339 0.5401447096653064 0.2777094681483234
-0.8185180946943555 0.480219361308708 0.3153053974834208
-0.840876581484173 0.4149981416856228 0.347423541385684
-0.8608602098297011 0.344686239855673 0.3743141664245683
-0.8777613883505045 0.2697036676509298 0.3959733283652205
-0.8908763210643443 0.1907417767533913 0.4122583597306644
-0.8995817315681683 0.1087532535676945 0.4229957896566534
-0.9034100815393681 0.02489511322353631 0.4280542698193991
-0.9021087568130862 -0.05954852435104145 0.4273801166745602
-0.895673956126364 -0.1432491433948988 0.4210081320278447
-0.8843549671624126 -0.2249181260953597 0.4090576103789286
-0.8686270953831916 -0.3033924578018216 0.3917141632812491
-0.8491353591518513 -0.3777159346571864 0.3691880476723259
-0.8266173906776111 -0.4471991602876511 0.3416381133119618
-0.801821108428194 -0.5114315808392683 0.3090641490034531
-0.7754309478532411 -0.5702281655432326 0.2711949194447106
-0.7480046789413978 -0.6235195790470692 0.2274034626533671
-0.7199108197191429 -0.6712065564204531 0.1766640038873452
-0.6912522459273261 -0.7129877067442165 0.1175536580972699
-0.6617562034660116 -0.7481615698482699 0.0483010618560545
-0.6306110049668212 -0.7753910550823843 -0.03314320613582643
-0.5962630278144498 -0.7923694382429929 -0.1289227481867643
-0.5560794820338706 -0.7955660069443996 -0.2405209725896782
-0.5039052148270716 -0.781531109929007 -0.367816066374508
-0.4131518339634204 -0.7541737977850576 -0.510418891526484
0 0 0
0 0 0
0 0 0
0 0 0
0 0 0
-0.3852595938475849 0.7265793415091882 -0.5689090488298348
-0.4596875200377944 0.7829353657758772 -0.4191653575128738
-0.5178081819339635 0.8093819216930368 -0.2770840875234979
-0.5591915084680208 0.814761336710157 -0.1531953689232702
-0.5919978379540995 0.8045441529221831 -0.04740533573763956
-0.6208015885742039 0.7828260141405718 0.04229443472289256
-0.6478896637751902 0.75246205235982 0.1184898448463757
-0.6743916396962628 0.7151461376498086 0.1837441648389052
-0.7007737424989845 0.6717179911179426 0.2402313514769502
-0.7270729475836069 0.6224778136595391 0.2896313180471432
-0.753027680079609 0.5674254085262688 0.3331331847665705
-0.7781557574223886 0.5064453151878803 0.3714656914368225
-0.8018055897044951 0.439462794525089 0.4049447475234433
-0.823201171911191 0.3665793497150219 0.4335428593882647
-0.8414962507467966 0.2881804505345943 0.4569858727671588
-0.8558462465969036 0.2049980543245629 0.474871561487035
-0.8654959313370152 0.1181138596275639 0.4867914430256062
-0.86987033014007 0.02890472627776243 0.4924328639934715
-0.8686510676844855 -0.06105665947994049 0.4916476451115711
-0.8618224599150951 -0.1501281802871306 0.4844827933679053
-0.8496774933396736 -0.2367344289798037 0.4711740309563067
-0.8327820557779927 -0.3194944629591329 0.452103235680342
-0.8119042205822303 -0.3973229526383514 0.4277218814925217
-0.7879235081021648 -0.4694861979158745 0.3984460507351951
-0.7617380090395902 -0.5356004182000828 0.3645372376154418
-0.7341828452142538 -0.5955720656627019 0.3259899759123963
-0.7059617550944304 -0.6494951247413443 0.2824430620164292
-0.6775830601787958 -0.6975222943885834 0.2331176642591125
-0.6492840758544621 -0.7397163478144527 0.176776450970892
-0.6209243551623089 -0.775871315694188 0.111698910689586
-0.5918246478900746 -0.8052765034325757 0.03568387828128454
-0.5605123453689086 -0.8263941972196055 -0.05383810445036649
-0.52424764231043 -0.8365115851737639 -0.159413855740432
-0.4780159223124062 -0.8315530613088244 -0.2828785680176945
-0.4135905046980557 -0.8057948614091202 -0.4238366852341405
-0.3328751133696178 -0.7499345848018648 -0.5716574826040659
0 0 0
0 0 0
0 0 0
0 0 0
-0.4117254017628585 0.7672113198586725 -0.4918017733029496
-0.4480251883881075 0.826177613425996 -0.3416196446979091
-0.4867553548987578 0.8494073991637509 -0.2039026599219736
-0.5198812743537365 0.8499932469269106 -0.08505845492943308
-0.5486146754965131 0.8359341623982182 0.0153627460255151
-0.5750868414202998 0.8119407918361768 0.1001362840216498
-0.6007785415283106 0.7805994987283792 0.1724226395347153
-0.6265054809596129 0.7431330601006256 0.2350407141604264
-0.6525950677492258 0.6999238610065232 0.2902176189398293
-0.6790180682607538 0.6508747538346915 0.3395534093424233
-0.7054691996907767 0.5956570186431861 0.3840650002652746
-0.7314165681914075 0.5338941433204586 0.4242485680626598
-0.7561379820246181 0.4653161223848374 0.460148083108554
-0.7787603834366195 0.3898981746410164 0.4914383772165665
-0.7983161691316353 0.3079786099470253 0.51753306166668
-0.8138241027445291 0.2203365863925667 0.5377193677829843
-0.8243925718167289 0.1282084491886712 0.551307066062131
-0.8293310112642671 0.03323044712722747 0.5577685999938611
-0.8282474210363601 -0.0626879520067842 0.5568450684165326
-0.821109102979109 -0.1575405166123467 0.5485989670336221
-0.8082514733046919 -0.2494183958943272 0.5334041804207152
-0.790332437958511 -0.3366861243114662 0.5118760506281568
-0.7682440336883997 -0.4181075308092369 0.4847547806703707
-0.7430023035094753 -0.4929024516352206 0.452763459382051
-0.7156383100180164 -0.560730813239888 0.416464601518413
-0.6871056024167382 -0.6216172304619482 0.3761354940980015
-0.658207958544157 -0.6758375264472283 0.331671405392181
-0.6295398343103111 -0.7237860559810393 0.2825125522591118
-0.6014257417763391 -0.7658282589585895 0.2275832922453555
-0.5738413753145564 -0.8021241857495699 0.1652357909554924
-0.5462993785685274 -0.8323873364856302 0.09321111003522346
-0.5176859147835989 -0.8555267102841467 0.008679955360095483
-0.4860763680041327 -0.8691131333913016 -0.09149932149837994
-0.4488255000252998 -0.8685815286209417 -0.2100518951724717
-0.4044598678559911 -0.845989266688066 -0.3474397443334622
-0.3620857053711208 -0.7879804366113672 -0.4979766796584517
0 0 0
0 0 0
0 0 0
-0.2950257248548952 0.7592967933752958 -0.5800243109076004
-0.3737016595744225 0.8262752092493194 -0.4214455459621268
-0.415419556134172 0.8676685757149462 -0.2730894269247409
-0.4473741971155408 0.8831714178650201 -0.1409417412320227
-0.474788059669528 0.8796618618531806 -0.02777241790409857
-0.4998483287964842 0.8634627109806015 0.06770372918378439
-0.5240033064626323 0.8386553207521849 0.1485859609461061
-0.5481910720453239 0.8073857140306183 0.2182082888184276
-0.5729339434400406 0.7704912130610202 0.2794458570993695
-0.5984245714195933 0.7280106932526352 0.3344973285858839
-0.6245835028572625 0.6795376895243946 0.3848687782535741
-0.6510900354138007 0.62446340743229 0.4314246383354905
-0.6773984825504773 0.5621621002802607 0.4744523883877033
-0.7027533089189412 0.4921548509154372 0.5137327997353118
-0.7262173113512256 0.4142664578049616 0.548627121669651
-0.7467258099749121 0.328768280006414 0.5781971833024914
-0.7631749064648454 0.2364828862975069 0.6013650360893741
-0.7745411357531773 0.1388184479151373 0.6171024773444115
-0.7800162701395814 0.03770811019782436 0.6246220591228295
-0.7791292178375879 -0.06455036784456558 0.6235310031770024
-0.7718243429364736 -0.165530662234547 0.6139110550485897
-0.758474222027372 -0.2629415551805138 0.5963041112379026
-0.7398235811443251 -0.35486008207351 0.57160772469725
-0.7168805117569429 -0.4398876245615391 0.5409077644300451
-0.6907838292865515 -0.5172069217794195 0.5052867515180516
-0.6626754235997497 -0.5865464201839156 0.4656442632808068
-0.6335971757689577 -0.6480772796593887 0.4225523144498043
-0.6044175793392965 -0.7022748471470541 0.3761508059943595
-0.5757818713547788 -0.7497677496102202 0.326072933963576
-0.5480721433746023 -0.7911811883782518 0.2713839582826258
-0.5213621666062085 -0.8269594301867126 0.2105221889895381
-0.4953519499843272 -0.8571314756795477 0.1412518284700224
-0.4692729813796742 -0.8809656958210023 0.06068205446133564
-0.4417764415463475 -0.8964611105101022 -0.03451163626431515
-0.4108660668110926 -0.8997030383846473 -0.1473890018441539
-0.373843831823472 -0.884485741483015 -0.2791518628287906
-0.3254936777326303 -0.8437663555210544 -0.4267460638914008
-0.2399368865589104 -0.7768495804351443 -0.5821812603014254
0 0 0
0 0 0
-0.3230085182738153 0.7896264408732682 -0.521685327564777
-0.350998884769397 0.863500976455402 -0.3621682572385463
-0.3781613972810708 0.9002708802150391 -0.2156531934455549
-0.4023803629170871 0.9112169516231673 -0.08816864869836283
-0.4247513644997727 0.9050898121100142 0.01996773322737745
-0.446382461297805 0.887900041174003 0.1112484387706933
-0.4681009154337573 0.8631911527067108 0.189162805167764
-0.4904539666789255 0.8326728977555272 0.2571201118394286
-0.5137477259510383 0.7968449739655589 0.3179644029541098
-0.5380776916837134 0.7554651896022012 0.3738244842324222
-0.5633391881551466 0.7078699152659855 0.4261093077486411
-0.5892217826639224 0.6532006499284365 0.4755487375310933
-0.6151972922791801 0.5905885719877991 0.5222426928256408
-0.6405135530536008 0.519332252058558 0.5657175976814206
-0.6642078590416435 0.4390816429546275 0.6050084551537941
-0.6851544718180287 0.3500179418336977 0.6387885331956575
-0.7021558361535444 0.2529965027226505 0.6655598781218893
-0.714076096269793 0.1496075314130412 0.6838953979086192
-0.7199985584221886 0.04211359877931749 0.6926965574245507
-0.719373297109648 -0.06674970271130638 0.6914090949601006
-0.7121148500483196 -0.174081601540453 0.6801382479656394
-0.6986207217114923 -0.2771629556228155 0.6596285191118848
-0.6797052896312353 -0.3737576049823581 0.6311148643196175
-0.6564706191699446 -0.4623022001595794 0.5960897599307011
-0.6301508973471931 -0.5419605804235265 0.556047278421108
-0.6019672035324093 -0.6125591749472958 0.5122565207581632
-0.573015850812016 -0.6744450825326253 0.4655928106894919
-0.5441971268344391 -0.7283108950192593 0.4164285380967377
-0.5161771023846756 -0.7750175692779376 0.3645668200539876
-0.4893685039329264 -0.8154244614119613 0.309194785029537
-0.4639142365622038 -0.8502132087990326 0.2488394677268045
-0.4396591716052149 -0.8796702052188908 0.1813288252693712
-0.4161002977261681 -0.9033752068508912 0.1037968105449432
-0.3923207573691193 -0.9197389408528843 0.01283370625090933
-0.3669509292057363 -0.9253737891050785 -0.09502823786830904
-0.3382838878340352 -0.9144244347736673 -0.2222430298586395
-0.3049783378668323 -0.8781853942328528 -0.3684815148526076
-0.2703723651090745 -0.8050166602444848 -0.5280596187118838
0 0 0
0 0 0
-0.3039022806692594 0.8301733600430883 -0.4673923363500851
-0.3163770901273208 0.8968806250234951 -0.309048024261656
-0.3338409641951331 0.9277908900413313 -0.166596143357454
-0.3519825538080494 0.9349669735035447 -0.04410261072073716
-0.3701323018436396 0.9270746381344035 0.05945329645942945
-0.3885662847113741 0.9095799165147802 0.1472433966552122
-0.4076741929105325 0.8854876909375302 0.2229647990891522
-0.4277576382599729 0.8561017446352339 0.2900227676282646
-0.4489955495167959 0.8216243990082228 0.3511927440430482
-0.4714360976902638 0.7815729575082854 0.4085238278072986
-0.4949804323111144 0.7350596647099082 0.4633375237833201
-0.5193553765191785 0.6809961920429549 0.5162501131269771
-0.5440821474379287 0.6182747608196489 0.5671956778508959
-0.5684522431032284 0.5459604761711883 0.6154585329409583
-0.5915254778991815 0.4635074370599661 0.6597412104653199
-0.612166552808503 0.3709838657629365 0.6983001381684962
-0.6291332839762945 0.2692637141347704 0.7291696395514222
-0.6412174220919258 0.1601220556504178 0.7504672843635948
-0.647419862638655 0.04617444962594346 0.7607334892475062
-0.6471211417222005 -0.06936621453433636 0.7592249707546053
-0.6401986667007142 -0.1830808162226124 0.7460744479513348
-0.6270526503850933 -0.2917885519299055 0.722263396973485
-0.6085332917703461 -0.392926095368989 0.6894173745890266
-0.5857946719020063 -0.4847734622281409 0.6494915647570501
-0.5601205947552613 -0.5664997978282387 0.6044360167888545
-0.532765624103387 -0.6380603570503133 0.5559134559754374
-0.5048387662477029 -0.70000499896493 0.5051047629132048
-0.4772362729598272 -0.7532588294314059 0.4525999068217323
-0.4506150725657462 -0.7989145465932359 0.3983485956022573
-0.4253900978160701 -0.8380492752342789 0.3416382252607773
-0.4017381689682333 -0.8715523820470651 0.281074525601551
-0.3795930420787553 -0.8999297928402052 0.2145588272804939
-0.3586230581300128 -0.9230323285061856 0.1392868360970488
-0.338199486903008 -0.9396454142256812 0.05184209277401331
-0.3174158659307157 -0.9468885527988151 -0.05147073570504663
-0.2953703884099198 -0.9394366496555615 -0.1738249548669757
-0.272359003107645 -0.9087141822928926 -0.3163212106798538
-0.2537216113237107 -0.8424193171945529 -0.4753472814319678
0 0 0
0 0 0
-0.2542904710631525 0.8708648353827512 -0.4206314239571898
-0.2664443481033675 0.9270239516024038 -0.2638825544048616
-0.2812297418057367 0.9513348720011413 -0.1259833069833061
-0.2961612489604293 0.9551025514520323 -0.008223796204660046
-0.3112005581464233 0.9459375003909957 0.09141366398623903
-0.3267080718034415 0.9285075305444461 0.176452830922972
-0.343012201344313 0.9052694799851796 0.2506587288252508
-0.3603464764280017 0.8771612165378495 0.3173934736691397
-0.37885307931856 0.8441287870116801 0.3793638559866154
-0.3985809949336282 0.8054834142067671 0.4385540558648706
-0.4194664543731943 0.7601401324915112 0.4962205886814528
-0.4412990202119033 0.7067992025599391 0.5528924506815476
-0.4636809394348709 0.6441220653450389 0.6083639957627642
-0.4859911702600537 0.5709376792076529 0.6616968708481564
-0.5073693803737001 0.4864921346405274 0.7112676815321428
-0.5267386749301952 0.3907239135520967 0.7549047567152529
-0.5428833477587399 0.2845110256278197 0.7901462820405271
-0.5545870299824107 0.1698086052121165 0.814615408503426
-0.560814970254655 0.04959371558424541 0.8264544951253024
-0.5608997456883598 -0.07242378928106775 0.8247098095893514
-0.5546745585897899 -0.1922851047211916 0.8095446698951093
-0.5425088051038414 -0.3063355188664406 0.7822037754099823
-0.5252346595150391 -0.4116883642435506 0.7447424005591395
-0.5039932976227565 -0.5064856133020077 0.6996163802180647
-0.4800511074723834 -0.5899287665921639 0.6492572560715711
-0.4546348780199865 -0.6621283461541955 0.5957291170547744
-0.4288152526744802 -0.7238558632403268 0.5405091750621096
-0.4034451616270737 -0.776275918101988 0.4843838359551436
-0.3791421722747408 -0.8207076285289002 0.4274227435189414
-0.3562965261628117 -0.8584294834114314 0.3689872727538109
-0.3350853621248256 -0.89051328966138 0.3077399568241681
-0.3154771123790136 -0.9176510515181877 0.2416417580066887
-0.2972144131203092 -0.9399231311890812 0.167952672170652
-0.2797752616995765 -0.9564454155379178 0.08329447783276182
-0.2623437175920496 -0.9648401623769526 -0.01610077340993087
-0.2439234596225896 -0.9605265039700439 -0.1337541813059739
-0.2240668705337947 -0.9359314543794963 -0.2717100480885307
-0.2059983642062079 -0.879551111242667 -0.4288991917177686
0 0 0
-0.08624891726545382 0.8300331936293689 -0.5510045569176055
-0.1725246633799501 0.9071717377764806 -0.3837638319399501
-0.2046856570799443 0.9515368957246716 -0.2295241117190223
-0.2225138906683577 0.9702843377804202 -0.09505720550090199
-0.2361650405755128 0.9715218216130966 0.01927235687548527
-0.248735442317784 0.9615867028233891 0.1161106915327743
-0.2613720263919536 0.9444458459774074 0.1992654205721159
-0.2745886885578656 0.9221173441153431 0.2725814663504047
-0.2886574129609421 0.8952517998142937 0.3394128943808166
-0.3037356523901546 0.8635918420064416 0.4024348194267582