# OOMMF: rectangular mesh v1.0
# Segment count: 1
# Begin: Segment
# Begin: Header
# Title: 
# Desc: time = 5.2e-10
# Desc: stepsize = 9.175699158364032e-14
# Desc: step = 3326
# meshunit: m
# valueunit: (none)
# valuemultiplier: 384000.0000000001
# xmin: 0
# ymin: 0
# zmin: 0
# xmax: 9.357999999999999e-08
# ymax: 9.357999999999999e-08
# zmax: 2.3395e-08
# ValueRangeMaxMag: 1
# ValueRangeMinMag: 0
# meshtype: rectangular
# xbase: 1.16975e-09
# ybase: 1.16975e-09
# zbase: 1.16975e-09
# xstepsize: 2.3395e-09
# ystepsize: 2.3395e-09
# zstepsize: 2.3395e-09
# xnodes: 40
# ynodes: 40
# znodes: 10
# End: Header
# Begin: Data Text
0 0 0
0 0 0
0 0 0
0 0 0
0 0 0
0 0 0
0 0 0
0 0 0
0 0 0
0 0 0
0 0 0
0 0 0
0 0 0
0 0 0
0 0 0
0 0 0
-0.8202133135136472 -0.004260667276897734 -0.5720419277022608
-0.8290930014341714 0.01782040233446707 -0.5588266531166117
-0.8384488128012795 0.00172818858608407 -0.5449776157571385
-0.8427089369959435 -0.03021813194503649 -0.5375207084465852
-0.8401376216083311 -0.06666396174686731 -0.5382608038511706
-0.8308724391750948 -0.09880417164684765 -0.5476209688136566
-0.817030085002339 -0.1151132427566087 -0.5649874171546904
-0.8050257172943771 -0.0923886555323505 -0.5860016474580918
0 0 0
0 0 0
0 0 0
0 0 0
0 0 0
0 0 0
0 0 0
0 0 0
0 0 0
0 0 0
0 0 0
0 0 0
0 0 0
0 0 0
0 0 0
0 0 0
0 0 0
0 0 0
0 0 0
0 0 0
0 0 0
0 0 0
0 0 0
0 0 0
0 0 0
0 0 0
0 0 0
0 0 0
-0.7754081853272273 0.199911293731104 -0.5989804844619662
-0.8026740130329558 0.2325431146406469 -0.5492159216872688
-0.8388641679851444 0.2177440772621464 -0.4988931994804572
-0.8745380639815077 0.1714874685399837 -0.4536245394389767
-0.9051831388497047 0.090965230817492 -0.4151732312234448
-0.9172483029763729 0.05261447293869598 -0.3948256171075356
-0.9243992875635297 0.01620855989736443 -0.3810816706928993
-0.9270449511206535 -0.02403781191242563 -0.3741788906394468
-0.9246631352863826 -0.06602679094054491 -0.375018065058805
-0.917308397858113 -0.1063204394718778 -0.3837202983547887
-0.9055462795482064 -0.1427430368505919 -0.399512654401674
-0.8885997828649184 -0.1808387596262676 -0.4215302704542729
-0.8506016285346896 -0.2602817090047203 -0.4568701144654958
-0.8084253245473699 -0.3069146737057011 -0.5022468294520152
-0.7667058153196679 -0.3223699214916186 -0.5551935036295815
-0.7356918934565638 -0.2898293668580915 -0.6121734852220676
0 0 0
0 0 0
0 0 0
0 0 0
0 0 0
0 0 0
0 0 0
0 0 0
0 0 0
0 0 0
0 0 0
0 0 0
0 0 0
0 0 0
0 0 0
0 0 0
0 0 0
0 0 0
0 0 0
0 0 0
0 0 0
0 0 0
-0.7558384790010007 0.2921560918275259 -0.5859633193891229
-0.7930051510120707 0.322985505971824 -0.5165493136191809
-0.8472382556948673 0.2871703412686492 -0.4469010328727887
-0.8805651184449822 0.2679142476110563 -0.3909309761389794
-0.9099328572470872 0.236620372578979 -0.3406361615899529
-0.9357668785019755 0.1895425265051531 -0.2973448835018211
-0.9557451769279861 0.1300509779269193 -0.2638899390259957
-0.9668456000130953 0.07857126178298533 -0.2429735429159862
-0.9727037157488565 0.03018911061147382 -0.2300784626358049
-0.9744119772118941 -0.01821695415027328 -0.2240300007755506
-0.9720965505554848 -0.06690005246846893 -0.2248392300686056
-0.9657531166162641 -0.1151675856671402 -0.2325023547355464
-0.9551830457202464 -0.1632583781905476 -0.2469251933667057
-0.939016558376357 -0.2142670595642343 -0.2689563724486147
-0.9131457288419872 -0.2731629564456943 -0.3025671448182752
-0.8816237767465975 -0.3200474124037489 -0.346856123037679
-0.8469859609147188 -0.3513018007777674 -0.3990010360684135
-0.8086255463052254 -0.3703927389005073 -0.4570929280051874
-0.7480860165410711 -0.4052120621703999 -0.5255192637071675
-0.7066103445258836 -0.3743354468142871 -0.6004788041782652
0 0 0
0 0 0
0 0 0
0 0 0
0 0 0
0 0 0
0 0 0
0 0 0
0 0 0
0 0 0
0 0 0
0 0 0
0 0 0
0 0 0
0 0 0
0 0 0
0 0 0
0 0 0
0 0 0
-0.7654840221436028 0.3734551547406633 -0.5239899419268261
-0.8159789627360932 0.3745750307349686 -0.44030884470111
-0.8552981146922695 0.3661976886028146 -0.3665574823486822
-0.8926771472954945 0.3361517445215644 -0.3002157813165163
-0.9214821147361181 0.3012817473138153 -0.2451530561852842
-0.945240062522779 0.2591688300652844 -0.1983752548190525
-0.9648755911882821 0.2085902542614833 -0.1597034732126759
-0.9797735849327375 0.151828822084804 -0.1303523342805643
-0.9892432820269155 0.09549039231860157 -0.1108120658568171
-0.9942699096837188 0.04031322204811551 -0.09900601408817811
-0.9954964896506898 -0.01437900658105734 -0.09370156489032229
-0.9931379405812069 -0.06889357115880186 -0.09450241706488567
-0.9871815914659149 -0.1232631567300843 -0.1013839221166622
-0.9773615191180297 -0.1778042688009785 -0.1146738982656727
-0.9629346829994803 -0.2332260539836935 -0.135507948179747
-0.9428667997103651 -0.2888980162083294 -0.1659522046699752
-0.9181810148340587 -0.3384208048221807 -0.2059489812108931
-0.8895495531441802 -0.3795365725854712 -0.2542706875970209
-0.8558295585112531 -0.4134873369588603 -0.3107796469415312
-0.8130640195047275 -0.442748299927378 -0.3780222785739376
-0.7686419704172345 -0.4506978258058506 -0.4539394134980895
-0.7129530942548553 -0.4479911586838046 -0.5394458333638039
0 0 0
0 0 0
0 0 0
0 0 0
0 0 0
0 0 0
0 0 0
0 0 0
0 0 0
0 0 0
0 0 0
0 0 0
0 0 0
0 0 0
0 0 0
0 0 0
-0.6668690026100539 0.4633767503175011 -0.5835818028546328
-0.7179106558725673 0.5007625047306727 -0.4835713019198746
-0.797214077712334 0.4662290547485965 -0.3835103425013492
-0.8462309059776073 0.4401664176711355 -0.300244531212272
-0.8823538060682576 0.410931835580462 -0.2293180922285268
-0.9124236273331944 0.3729680960010473 -0.1684574832101238
-0.9368882993462018 0.329173940759377 -0.1178339139344999
-0.9570127166515968 0.279932529530204 -0.07592390320545485
-0.9733664226506605 0.2253565841037376 -0.04209771083265443
-0.9858473955612949 0.1668312399253075 -0.01650000151502309
-0.994254232955858 0.1070392948241479 0.001053381652938094
-0.9988161210456751 0.04721925047138076 0.0116918229627224
-0.9997895719365792 -0.01237121822635629 0.01636352060123299
-0.9973042428755063 -0.07171757214064678 0.01551892356974163
-0.9913643126342709 -0.1308149468254913 0.009178742954394256
-0.9818440758806811 -0.1896649986758257 -0.003065768306575787
-0.9684929323557986 -0.2480557483683692 -0.02213110205737491
-0.9511310128258516 -0.3048483453598906 -0.04916586999337807
-0.9300845658268148 -0.3575057488046563 -0.08445318219206778
-0.9054463352757208 -0.4047569374549441 -0.1278231415584083
-0.876479816924184 -0.4466127566433908 -0.1797781302826889
-0.8416732596209078 -0.4828504223053287 -0.2417469621705322
-0.8004862308996261 -0.5106894301587026 -0.3137165919493098
-0.7454644313576898 -0.5354023837379753 -0.3970227563607022
-0.6582609058535548 -0.5682902713399003 -0.493699045295086
-0.6015917450628128 -0.5307193086076468 -0.5970128874181028
0 0 0
0 0 0
0 0 0
0 0 0
0 0 0
0 0 0
0 0 0
0 0 0
0 0 0
0 0 0
0 0 0
0 0 0
0 0 0
-0.6503094600001743 0.5107124357563811 -0.5623792441031811
-0.7129295227795819 0.535282898083064 -0.4529941661534649
-0.7640592739381685 0.5415738847642524 -0.3505868697633074
-0.8154482690961666 0.5191502245851356 -0.2559827430536448
-0.8555883350215878 0.4866363559147123 -0.176503988841714
-0.8873135969640762 0.4477730241434208 -0.1103353954636851
-0.9136015931353989 0.4028539326528066 -0.05514379354585982
-0.9355939433302847 0.3529467919274919 -0.009619525548555738
-0.9539727046179133 0.2986233243276438 0.02757152537473468
-0.9690055376920701 0.2403169403659398 0.05723666740171524
-0.9806257448633063 0.1789397206490797 0.07971025583520694
-0.9886730571518143 0.1158835860466674 0.09537599565430167
-0.9931081317141106 0.05218582349475348 0.1049422629329222
-0.9939664380841944 -0.01159676733223589 0.1090698627012092
-0.9912913539097582 -0.07516604151595346 0.1081273224794723
-0.9851104477519897 -0.1382970555030721 0.102133883550239
-0.975437098220723 -0.2007123990250015 0.09075792137529097
-0.9623003691938371 -0.2619072524723633 0.07336614036312492
-0.9458173257202351 -0.3209412679459304 0.04925737403354516
-0.926217443954382 -0.3765579637154398 0.01803736336308215
-0.9035489049370262 -0.4279891332507789 -0.02060772200770535
-0.8774207354424334 -0.4749579644088724 -0.06743726759173281
-0.8469490942112655 -0.5170720670161305 -0.1237485730276611
-0.8107398077032602 -0.5534321460181741 -0.1908240654608281
-0.7653865473888759 -0.5838455035718603 -0.2707542447221395
-0.7077664211638831 -0.60471977019704 -0.3652132152670644
-0.6505168459290493 -0.5976222182911043 -0.4686955486958889
-0.5819387761587336 -0.5714880054983047 -0.5785747318838291
0 0 0
0 0 0
0 0 0
0 0 0
0 0 0
0 0 0
0 0 0
0 0 0
0 0 0
0 0 0
0 0 0
-0.6122029748334659 0.5577759459916067 -0.5604404622064882
-0.6801954201052167 0.5859195389003025 -0.440491185385978
-0.7332850641140997 0.5945346103416463 -0.3298812086995662
-0.7771278084460399 0.5855396746243757 -0.2306851941079762
-0.8163988116599366 0.5593993265778002 -0.1434063239349868
-0.8498259841404368 0.5223882366579042 -0.07004517742987527
-0.8781766125122838 0.4782449693886029 -0.009358765460448087
-0.902579177350986 0.4285962756996443 0.04069473023391426
-0.9236565292501205 0.3743975793715396 0.08176226840268222
-0.9416728262129576 0.3162197946391651 0.1151404787660044
-0.9566284277909703 0.2545400730909101 0.1416735766932202
-0.968343569870298 0.1900440600829238 0.1618455619349653
-0.9765826712488829 0.1236547775621872 0.1760561904689576
-0.9811688828904545 0.05624519051227304 0.1847812268379415
-0.9820131388392325 -0.01150698776463188 0.1884616257483263
-0.9791019335174228 -0.07908368591355454 0.1873637489077583
-0.972485530087458 -0.1460296663044247 0.1815137193975526
-0.9622788483129224 -0.2118551173492938 0.1706951298147428
-0.9486729501599533 -0.2759459765228867 0.1545103610624236
-0.931939084475818 -0.3375348704695981 0.1325132221457349
-0.9123750428371765 -0.3958399039606546 0.1043194691334243
-0.8901548583336029 -0.4503334226098206 0.06945600525230018
-0.8651927831631484 -0.5007072376662743 0.0270870838410754
-0.8370647509680268 -0.5465734247137425 -0.02408514238126383
-0.8049141260236387 -0.5871686060019433 -0.08571043024822393
-0.7672957155284459 -0.6210625554450313 -0.1598079696253505
-0.7231771057826847 -0.6447273904618568 -0.247672093018215
-0.6738700028604121 -0.6519894505097774 -0.3475758559924241
-0.6145050850144919 -0.6420090229961509 -0.4584843671084753
-0.5399878958957364 -0.6120052857422906 -0.5778084479389272
0 0 0
0 0 0
0 0 0
0 0 0
0 0 0
0 0 0
0 0 0
0 0 0
0 0 0
-0.5732015276079729 0.5830679054950728 -0.575735899809517
-0.6377239373604054 0.6270615886838629 -0.4473275575177672
-0.6902954361766405 0.6454869203090601 -0.3268621215491725
-0.733656496009475 0.6430981456377762 -0.2194833044683631
-0.7706497250419897 0.6246449295617004 -0.126165420244865
-0.8036296985886336 0.5933277474024382 -0.04627625426381933
-0.8331613622430838 0.5526428938843129 0.02068758817311093
-0.8596575835149647 0.5051571019583534 0.07619147882964725
-0.8834570701383855 0.4523420129761767 0.1220258518477114
-0.9046760941725954 0.3950299547416369 0.1597263268513887
-0.9232257260885186 0.3337417913400313 0.1904486161710659
-0.9388651246148755 0.2689379443885903 0.2149526921206922
-0.9512627069953749 0.201208744418343 0.2336970334630387
-0.960074520453095 0.1313152387453686 0.2470085489411365
-0.9650206608735651 0.06007957386030851 0.2551971177186578
-0.9659292726400341 -0.01171861421532386 0.2585407401899483
-0.9627497234052212 -0.08336778409980605 0.2572212717825981
-0.9555531575281303 -0.1541976491222335 0.2512792234610655
-0.9445302989825241 -0.2235372291775734 0.2406109338238724
-0.9299846561911501 -0.2906905896039953 0.2250056007407577
-0.9123066190012635 -0.3549620949375335 0.2042022137099407
-0.8919105715592817 -0.415749655406629 0.1778981629193065
-0.8691396971942854 -0.4726375001191864 0.1456364660451195
-0.8441806604356712 -0.5253447981097246 0.1066389030581529
-0.8170014058009912 -0.5735352352817726 0.05971630271111119
-0.7872943929284895 -0.6165684950268456 0.003290866708176261
-0.7544566712941102 -0.6531758644219475 -0.06447031314063499
-0.7177709048626041 -0.6809960278073702 -0.1450839007033559
-0.6763696049378368 -0.6966797612034189 -0.2390846457758868
-0.6275307342349777 -0.6970203825179465 -0.3469405769653422
-0.568392999238607 -0.6770117828118803 -0.4675301534130388
-0.4972321149033881 -0.6309190213467337 -0.5955681425425496
0 0 0
0 0 0
0 0 0
0 0 0
0 0 0
0 0 0
0 0 0
0 0 0
-0.6090196929616603 0.6403675140609917 -0.4680004920085341
-0.6443618212610412 0.6846291387178943 -0.340706304196954
-0.6833974495083263 0.6947619124857288 -0.2242182217498987
-0.7190194992377076 0.6840487213021769 -0.1228344682929524
-0.7511434467791193 0.659137626697653 -0.03634709661265331
-0.7807696598877483 0.6237349869566509 0.03678864288004742
-0.8084381025735312 0.5803385483569381 0.09815805416913016
-0.8343297521454703 0.5306262157601087 0.1494312010022803
-0.8583998763134857 0.4756174464266885 0.1921918234461292
-0.8804263060503519 0.4159187679558867 0.227730318746953
-0.9000513806250725 0.3519526662840364 0.2569763275682372
-0.9168267990836644 0.2841449569709811 0.2805178495389567
-0.9302651613625375 0.2130554219993481 0.2986873226499769
-0.939901659936404 0.1394188799789823 0.3116845288977266
-0.9453583980342267 0.06409556916799268 0.3196705449039543
-0.946393153991216 -0.01200367102207721 0.3227939125209016
-0.9429262312258448 -0.08796995750664387 0.3211719306578694
-0.935048579129856 -0.1629182688969732 0.3148678966278562
-0.9230164045242553 -0.235998210159698 0.3038841255816676
-0.9072307198830889 -0.3064131000402384 0.2881725750728935
-0.888196701857086 -0.3734636072945257 0.2676407159547189
-0.8664604728432208 -0.4366059781007712 0.2421187082547947
-0.8425351905353867 -0.4954812604531507 0.2112646994868193
-0.8168359455545624 -0.5498604086610265 0.1744493308588832
-0.7896274286602393 -0.5995095094965919 0.1306785060006954
-0.7609737702150765 -0.6440056103999023 0.07858558912485707
-0.7306881473691831 -0.6825117424337589 0.01650917121555878
-0.6982799581386229 -0.7135287168563591 -0.05728761020709506
-0.6628235951957642 -0.7347148837951523 -0.1444261790037982
-0.6228894702176868 -0.7424736156351833 -0.2464581870775387
-0.5783941537920081 -0.73014888599164 -0.3637895093929911
-0.5374797468612759 -0.6839262786763298 -0.4933156870097335
0 0 0
0 0 0
0 0 0
0 0 0
0 0 0
0 0 0
0 0 0
-0.4922740550127644 0.7022561968342471 -0.5142980544092973
-0.5765578791434016 0.7286059937649861 -0.3697489930309465
-0.6237412498261095 0.7426678764429848 -0.2437032592417046
-0.6604672908192571 0.7388690025926137 -0.1336246787298899
-0.6925444963291075 0.7203003419607776 -0.03936417121506622
-0.7220935312419361 0.6906102553326081 0.04047724506411095
-0.7501893314706293 0.6523539496622995 0.1079365151727968
-0.7772775198403538 0.6071459209687519 0.1649651108623688
-0.8033827134742629 0.5559660466500439 0.2132556462630025
-0.828256037616681 0.4993823977462125 0.2541833137181865
-0.8514671810420714 0.4377418361514502 0.2887658644837108
-0.8724647301275463 0.3713378543987094 0.3176688410499682
-0.8906271099404783 0.300548308451799 0.3412536671243737
-0.9053157654807623 0.2259324703586321 0.3596635700340339
-0.9159376669281035 0.1482654487677152 0.3729283403068341
-0.9220109407521044 0.06850959460678258 0.3810541438958942
-0.9232219650894502 -0.01225237246671658 0.3840717153674693
-0.9194623738609554 -0.09288883812606592 0.3820479116623534
-0.9108431957640394 -0.1722828040153893 0.3750777361707118
-0.8976854848094049 -0.2493862470674628 0.3632729967064844
-0.8804887491962383 -0.3232737913786916 0.346747196594997
-0.8598780958735107 -0.3931949113707349 0.3255878098287845
-0.8365367508180687 -0.4586141524510676 0.2997988053717637
-0.8111359215116607 -0.5192131218357118 0.2692141358603647
-0.7842738585160229 -0.5748368044183858 0.2334034342816039
-0.7564237089567798 -0.6253892510372225 0.191602341361399
-0.7278792093099798 -0.6706969095043509 0.1426797541194624
-0.6986829998994898 -0.7103461948183224 0.08514898213472138
-0.6685186839850781 -0.7434958578446155 0.01722435864576706
-0.6365466338345758 -0.7686526599003751 -0.06309890159066212
-0.6012002652482301 -0.7833525188925463 -0.1578514244793499
-0.559857626867395 -0.7839384350933062 -0.2683280969668776
-0.5063829289565417 -0.7669453428722899 -0.3941714985991493
-0.414012785483963 -0.7365695498702823 -0.5348445677574925
0 0 0
0 0 0
0 0 0
0 0 0
0 0 0
-0.4197371224670349 0.7034467821289988 -0.5735707216511747
-0.4935395786756073 0.7589947191589813 -0.4246712853131023
-0.551680604541071 0.7843755769623763 -0.2835550472803072
-0.5936875218621849 0.7884410320600371 -0.1609219231467259
-0.6274774936420557 0.7765792482431548 -0.05653906765042894
-0.6574322032410755 0.7528504083817104 0.03160950396757597
-0.6856859992724227 0.7201301969471999 0.106052863452927
-0.7132323570709669 0.6801788383655708 0.169281873414299
-0.7404099681495794 0.6339431185220344 0.2234036739700039
-0.7671376157901002 0.5818698116819514 0.2700507372570757
-0.7930518639496166 0.5241403423031032 0.3103959449741954
-0.8175943989502008 0.4608480458635194 0.3451933913461185
-0.8400747363578459 0.3921402160713451 0.3748339475992185
-0.8597251836255241 0.3183343386889724 0.3994194004445865
-0.8757621754318029 0.2399988955682243 0.4188569471895958
-0.8874574736778124 0.1579860734161893 0.4329660876095594
-0.8942157244357549 0.07340685915511488 0.441576348099418
-0.8956443599234419 -0.01243876739029582 0.4445969608568385
-0.8916032917883367 -0.09815848311719612 0.44205031643958
-0.8822241964593399 -0.1823699466766165 0.4340756497787445
-0.8678974082837615 -0.2637988159239763 0.4209088659216352
-0.8492279318122458 -0.3413622975299602 0.4028445130009363
-0.8269686234126407 -0.414232109203217 0.3801771371295959
-0.8019416340790242 -0.4818641339218167 0.3531240178328877
-0.7749622743821385 -0.5439860061103347 0.3217338938324491
-0.7467737693821379 -0.6005392844523201 0.2857997641571603
-0.7179922788614501 -0.651587526963712 0.2447872182134005
-0.6890512135389597 -0.6972014298621224 0.1977842039160313
-0.6601293727593903 -0.7373240792535979 0.1434657219447477
-0.6310436825204355 -0.7716035847323908 0.0800735835289723
-0.6010855020167239 -0.7991663246094706 0.005422626254168061
-0.5687636417383175 -0.8183045531479781 -0.08297938378810824
-0.5313324188918733 -0.826146526992546 -0.1875307350080635
-0.4837878881511778 -0.8185042309115313 -0.3098388343286642
-0.4179497360425775 -0.7896420811059199 -0.4492030742199464
-0.336069824869415 -0.7303561678245175 -0.5946738105322324
0 0 0
0 0 0
0 0 0
0 0 0
-0.4476904408728295 0.7459424871124637 -0.4930954015923926
-0.4840649548269989 0.8042435365316122 -0.3447802973713262
-0.5233725876965886 0.8262504114438296 -0.2083060057623835
-0.5575683369855988 0.8251646321109728 -0.09066906586193542
-0.5877310723038954 0.8090124378382132 0.008429832239355815
-0.6158370185213927 0.7825201657302762 0.09168945874059123
-0.6432162526731626 0.7483083390923891 0.1621958135769337
-0.6705384622632703 0.7076635722443447 0.2226891087233074
-0.6979870648679762 0.6610694336965082 0.2753202882265764
-0.7253929983495094 0.6085728626425366 0.3216272202419693
-0.7523216390013756 0.5500348535775765 0.3625931760805452
-0.7781339442973447 0.4853099899217129 0.3987251915974749
-0.8020367852735167 0.4143889203094698 0.4301381380357643
-0.8231380739514166 0.3375135952484049 0.4566489726628624
-0.8405148457641852 0.2552617596181082 0.4778872546183615
-0.8532987689387893 0.1685828746646905 0.4934176986056896
-0.86077065445502 0.0787752858562203 0.5028601542848137
-0.8624500268045194 -0.01259742035430662 0.5059854308824513
-0.8581598357579647 -0.1038333866128866 0.5027726366026305
-0.8480530797910332 -0.1932415327921473 0.4934203926279135
-0.8325944259042081 -0.2792847971524501 0.4783163430542138
-0.8125023193148552 -0.3606977903695816 0.4579706160120779
-0.7886635123429345 -0.4365607548520394 0.4329255959422158
-0.7620383234057163 -0.5063232214803394 0.4036513211309678
-0.7335721763228965 -0.5697757954686117 0.3704421750057612
-0.7041235284047878 -0.6269809211586573 0.3333241384145961
-0.6744069642552373 -0.6781759808193133 0.2919804541468435
-0.644943054434766 -0.7236610447554647 0.2456891304876619
-0.6160007464938372 -0.7636696099297475 0.193266156346066
-0.5875174729484297 -0.7982055288251287 0.1330080927360699
-0.5589813772507621 -0.8268097405741407 0.06265359350079204
-0.5292652961389354 -0.8482069637820331 -0.02057165269562748
-0.4964440334863805 -0.8597786962210293 -0.1196825598833838
-0.4578974617140801 -0.8567821334888304 -0.2371798690659267
-0.4122489524504007 -0.8311439292598437 -0.3731629269609378
-0.3689158023165882 -0.7694554613384027 -0.5213822243015322
0 0 0
0 0 0
0 0 0
-0.333537779000644 0.7429150663503374 -0.5803703594852088
-0.4114933161239573 0.8081010332550257 -0.4214806885700315
-0.453548468129546 0.8480461799429707 -0.2740647072161537
-0.4865160212445063 0.8618930900363737 -0.1429771395012697
-0.5154704945369067 0.8563491034565306 -0.03092543081466232
-0.5424662668514592 0.8376890214397892 0.06330444445289111
-0.5688088860609591 0.8099908014146205 0.1427282479461964
-0.5952891492350588 0.7754236949727772 0.2105918376332875
-0.6222782154945421 0.734877168440926 0.269676416887303
-0.6498130270523562 0.6884797160286232 0.3220849429734325
-0.6776545621748412 0.635962822556145 0.3692364861305623
-0.7053251065794713 0.5769116476570079 0.4119337869443739
-0.7321358500349066 0.510952459819025 0.4504494210214416
-0.7572198465705146 0.4379065702555234 0.4846193760950652
-0.7795802996675876 0.3579233991824057 0.5139507726309066
-0.7981645508245879 0.2715817249362183 0.537751537875673
-0.8119632337798136 0.1799409561010136 0.5552809732984557
-0.8201270160021766 0.08451921101894962 0.5659047451577862
-0.8220791993614123 -0.01280707490218625 0.5692291004593394
-0.817600642531237 -0.1099721559494181 0.5651860881588867
-0.8068643411919664 -0.2049244380674439 0.5540540673937839
-0.7904122433313169 -0.2958256609382147 0.5364099774635283
-0.7690798165774279 -0.3812055684579511 0.5130288006631593
-0.7438888403600935 -0.4600503049473303 0.4847505648326603
-0.7159315746007467 -0.5318165636952805 0.4523418210480191
-0.6862679924093531 -0.5963833788088104 0.416368956665867
-0.6558463109718196 -0.6539598689314418 0.3770969453758892
-0.6254478173228539 -0.7049712945912098 0.3344106780718445
-0.5956469519151144 -0.7499355299822807 0.2877523406410945
-0.5667750131171669 -0.7893299619839039 0.2360599407365071
-0.5388734306421189 -0.823429840891222 0.1777040316871004
-0.5116251072138961 -0.8520820206781938 0.1104354096534935
-0.4842564262073432 -0.8743622783701873 0.03140572941656331
-0.4554257229710226 -0.8880701386409067 -0.06260063666322641
-0.4231625602602214 -0.8891016987157434 -0.174446601958288
-0.3848289738502432 -0.8711257042343139 -0.3050355197475182
-0.3353060587705993 -0.8271557616059096 -0.4509802578759677
-0.2486728416874526 -0.7569596623968717 -0.6042961917066006
0 0 0
0 0 0
-0.3620947069529717 0.7750944258056616 -0.5177992412910939
-0.3901029887438126 0.8476621687031906 -0.3595671090666495
-0.4180589707818422 0.8828350571941128 -0.2140769925468261
-0.4437510601426127 0.8918613117254108 -0.08756938545939634
-0.4681586220786575 0.8834280872970409 0.01955298309987067
-0.4922676126925319 0.8635036527373273 0.1096997684741767
-0.5167739152688108 0.8356122915996079 0.1862708206493844
-0.5420845209500691 0.8014673475096802 0.2525756580158331
-0.5683559434997715 0.7616001484022022 0.3113466483555387
-0.5955219240215033 0.7158395742452424 0.3645920212430829
-0.6233035822113523 0.6636463803861117 0.4136014098173597
-0.6512072496248956 0.6043538599839557 0.4590049345687599
-0.678523982067781 0.5373599112189998 0.5008488110933175
-0.7043417298064478 0.4623010052083694 0.5386840523317834
-0.7275848853166358 0.3792122777891928 0.5716802279532758
-0.7470887391410569 0.2886612085478674 0.5987763543496937
-0.7617125354412942 0.1918223441182463 0.6188684849372887
-0.7704778433119404 0.09046321287500587 0.6310152930648448
-0.7727088477438215 -0.01317901646084479 0.6346237863045631
-0.7681392763047767 -0.1166162301050728 0.6295734326304232
-0.7569582983950535 -0.2173830867728674 0.6162456718517093
-0.7397810993009134 -0.3133014152760795 0.5954545728291427
-0.7175551672231878 -0.4026804661406864 0.5682983584174973
-0.6914277015685291 -0.4844177368477127 0.5359731240752663
-0.6626077654106246 -0.5580001546868942 0.4995866056920861
-0.6322480607265734 -0.6234254467548901 0.4600033717767208
-0.6013606738425598 -0.6810777026308688 0.4177301795832803
-0.5707657546557469 -0.731585326151001 0.372839595366142
-0.5410651268668721 -0.7756798634003426 0.3249142625428446
-0.5126267943467624 -0.8140552330383101 0.2729978887843353
-0.4855677831893219 -0.8472107315080698 0.2155409574678742
-0.4597224770569555 -0.875242371579231 0.1503530348246404
-0.4345898959543162 -0.8975332173210537 0.07460392844705904
-0.4092664914182715 -0.9122912823106969 -0.01501849599931362
-0.382411275146797 -0.9159287113403151 -0.121803991654913
-0.3523739337863186 -0.9024229891983316 -0.2479220832324191
-0.3179230884729901 -0.862995208747069 -0.3926374657306628
-0.2825994312650677 -0.78609180851467 -0.5497246856698315
0 0 0
0 0 0
-0.3435350391706493 0.8183071309680671 -0.4608222176380283
-0.3564576430816818 0.8835280499207553 -0.3038357018058921
-0.3751596147898031 0.9126354797651882 -0.1623322041510264
-0.3952313638409276 0.917680297169883 -0.04068219785895144
-0.4159090672529264 0.9072892372934005 0.06201522126348986
-0.4373638632819731 0.8868803460831 0.1488492620962157
-0.4598690107905463 0.859418521922414 0.2234285055475625
-0.4835986349327898 0.826184862043309 0.289051784325266
-0.5085900360094587 0.7873859570371222 0.3483669472447574
-0.5347315323661562 0.742583372426648 0.4032767328879859
-0.5617419456370993 0.6909915907807759 0.4549468188503998
-0.5891444238564325 0.6317013711489251 0.5038474228647392
-0.6162428617861179 0.5638767869214961 0.549806970189306
-0.6421168851161289 0.4869502580842671 0.592085595163761
-0.6656482501571223 0.4008200172036163 0.6294884596810756
-0.6855936341749487 0.3060248491682951 0.6605377812588076
-0.700705639483119 0.2038555875715392 0.6837064473971376
-0.7098925728177895 0.09635207887139198 0.6976881910676859
-0.7123846847727155 -0.01384265208900057 0.7016526504506492
-0.7078664076215124 -0.1237640599071517 0.6954190150091621
-0.6965336326724291 -0.2304825293965395 0.6794988610727192
-0.6790604270985546 -0.3314486053917442 0.6549952353510642
-0.6564858277157004 -0.4247427142948538 0.6233939241457775
-0.6300574111339786 -0.509188623566262 0.5863058965299968
-0.6010712364918113 -0.5843320388997655 0.5452242079891974
-0.5707413454254655 -0.6503229718244447 0.5013325731880498
-0.5401122350378315 -0.7077480897244758 0.4553805167700888
-0.5100144544188865 -0.757454780405573 0.4076119624404441
-0.4810507736948031 -0.8003880066548926 0.3577278182230706
-0.4535990125934849 -0.8374427329710964 0.3048566954621723
-0.4278155522405377 -0.8693140109740513 0.247521723461457
-0.4036282603639066 -0.8963114178240691 0.183603022071568
-0.380710989402904 -0.9180885831771292 0.1103290351071416
-0.358450653497661 -0.9332304813390624 0.02437206816749336
-0.3359685184665649 -0.9386543762704611 -0.07780177702143123
-0.3124138748447273 -0.9288466697071365 -0.1991015695027643
-0.288186764638758 -0.8950975868611566 -0.3402186042567021
-0.2688484859344453 -0.825093829782465 -0.4969312464171078
0 0 0
0 0 0
-0.2944331147162246 0.8622034879340327 -0.4122066063916129
-0.3072791866381516 0.9164643313595905 -0.2562667180977935
-0.3236401582452319 0.9386677346236806 -0.1189955122996156
-0.3408908288650874 0.9401010787369136 -0.001845143182583383
-0.358897355107224 0.9283063610730627 0.09715960317089908
-0.3779249790648515 0.9078720123539522 0.1814968853264875
-0.3982003866670323 0.8811830596457751 0.2548585243846781
-0.4198451551819418 0.8491224686911557 0.32050129303029
-0.4428743137671022 0.8116070518352642 0.3809938787127539
-0.4671863653736552 0.7679585766291789 0.4381512576618246
-0.4925367283229881 0.7171621319585856 0.4930375723385619
-0.5184991489937605 0.6580725762853009 0.545984539006346
-0.5444292301179989 0.5896137922752424 0.5966174564592706
-0.5694431763695286 0.510998517545369 0.6439060365865632
-0.592432032657023 0.4219661294066145 0.6862717190118414
-0.6121258212729103 0.3230096828230019 0.7217802461508269
-0.6272180749045224 0.2155311934355734 0.7484275457045267
-0.6365384957987387 0.1018587174182868 0.7644890745145937
-0.6392428476722707 -0.01492581596812788 0.7688600664084011
-0.6349669927107647 -0.1313382024883323 0.7612931069798156
-0.6238982582999523 -0.2439484114288307 0.7424554773531107
-0.6067391242401035 -0.3498163553756002 0.7137899919640813
-0.5845799656357102 -0.4467978382898292 0.6772281413799095
-0.5587218606222103 -0.5336645521535137 0.6348480355468108
-0.5305006051658686 -0.6100530384345189 0.588561295206759
-0.5011468675629978 -0.6762965175543502 0.5398840963351794
-0.4716996986265721 -0.7332078479126293 0.4898016395184187
-0.4429686526534301 -0.781864427155238 0.4387103717894254
-0.4155318090741169 -0.8234233593971083 0.3864030109183565
-0.3897505879699426 -0.8589676993225078 0.3320677200477049
-0.3657862105575528 -0.8893661529372057 0.2742777682854008
-0.3436027423754013 -0.9151112575982238 0.2109704757758776
-0.3229484143946711 -0.9360888178667044 0.1394347399498533
-0.3033147614577614 -0.951221503674243 0.05637203588245306
-0.2839077968217067 -0.9579380808573111 -0.04184490586983802
-0.2637671475757729 -0.9514732469848992 -0.1585104164771284
-0.2425180704015043 -0.9241066124419814 -0.2953167018130468
-0.2235770047805516 -0.8642566820266854 -0.450637005255429
0 0 0
-0.1274956579070105 0.8288371878312816 -0.5447694680163258
-0.2131343619811235 0.9024438789731384 -0.3743912245857456
-0.2460312204215314 0.9440529964041802 -0.2196191671010982
-0.2656356866233796 0.9602937681045608 -0.08528517416098184
-0.281896483704527 0.9590145011487547 0.02873254359481051
-0.2977886792991555 0.9463839524498943 0.1252170796120902
-0.3143639678382334 0.9262368205047735 0.2079919423107762
-0.3320461061215639 0.9004813679096085 0.2808535017712016