# OOMMF: rectangular mesh v1.0
# Segment count: 1
# Begin: Segment
# Begin: Header
# Title: 
# Desc: time = 2.32e-09
# Desc: stepsize = 8.86097025317464e-14
# Desc: step = 14846
# meshunit: m
# valueunit: (none)
# valuemultiplier: 384000.0000000001
# xmin: 0
# ymin: 0
# zmin: 0
# xmax: 9.357999999999999e-08
# ymax: 9.357999999999999e-08
# zmax: 2.3395e-08
# ValueRangeMaxMag: 1
# ValueRangeMinMag: 0
# meshtype: rectangular
# xbase: 1.16975e-09
# ybase: 1.16975e-09
# zbase: 1.16975e-09
# xstepsize: 2.3395e-09
# ystepsize: 2.3395e-09
# zstepsize: 2.3395e-09
# xnodes: 40
# ynodes: 40
# znodes: 10
# End: Header
# Begin: Data Text
0 0 0
0 0 0
0 0 0
0 0 0
0 0 0
0 0 0
0 0 0
0 0 0
0 0 0
0 0 0
0 0 0
0 0 0
0 0 0
0 0 0
0 0 0
0 0 0
-0.8360003113928568 0.02909983411605744 -0.5479568222090713
-0.8458074250375203 0.04773408327290716 -0.531348526906299
-0.8563034023508654 0.02855280323272703 -0.515683256030176
-0.8617966722202854 -0.006337362234146444 -0.5072142876437477
-0.8604928887762037 -0.04573572998522309 -0.5074053915443765
-0.8524688014881938 -0.08098396481011534 -0.5164673657966353
-0.8397317052437175 -0.1007736506230665 -0.5335684909630419
-0.8284390429296554 -0.08240962466245125 -0.5539832180786611
0 0 0
0 0 0
0 0 0
0 0 0
0 0 0
0 0 0
0 0 0
0 0 0
0 0 0
0 0 0
0 0 0
0 0 0
0 0 0
0 0 0
0 0 0
0 0 0
0 0 0
0 0 0
0 0 0
0 0 0
0 0 0
0 0 0
0 0 0
0 0 0
0 0 0
0 0 0
0 0 0
0 0 0
-0.7803290589508751 0.2400829264858697 -0.5774484809632989
-0.8083474737955066 0.2697975017005121 -0.5232434134172966
-0.8454968763036674 0.2525565502201111 -0.4704787148231648
-0.8823089175399376 0.2043498360686221 -0.4239954227680178
-0.914563212608823 0.1224638684745041 -0.3854565229191061
-0.9278654717228865 0.08177780402960541 -0.3638379545244834
-0.9361868903625086 0.04277887745205205 -0.3488897733630467
-0.9400306744758657 -0.0001582730829038852 -0.3410898796418317
-0.9388732340680006 -0.04493174539872824 -0.341318309802033
-0.9327328200680947 -0.08814497054158801 -0.3496283033966807
-0.9221340907692721 -0.1276549267739283 -0.3652025989933121
-0.9063564747969136 -0.1688867974968758 -0.3872921251780884
-0.870313070600194 -0.2505120624576931 -0.4240269634181932
-0.829830251277901 -0.2999364605492905 -0.4705527321110984
-0.7894638859123203 -0.3188081701339919 -0.5245075056622489
-0.7592710628954892 -0.2905328715620532 -0.5823213061458947
0 0 0
0 0 0
0 0 0
0 0 0
0 0 0
0 0 0
0 0 0
0 0 0
0 0 0
0 0 0
0 0 0
0 0 0
0 0 0
0 0 0
0 0 0
0 0 0
0 0 0
0 0 0
0 0 0
0 0 0
0 0 0
0 0 0
-0.7530868054071663 0.334041744068283 -0.5668124705239359
-0.7909657623008195 0.3625189942828623 -0.4929027709924389
-0.846451901436385 0.3253611837070022 -0.4214964753014029
-0.8806465506764197 0.3042366950111973 -0.3631827173619186
-0.9109281799414952 0.2710566651136799 -0.3110275474711597
-0.9378706585972441 0.2222633695422045 -0.2664537901815555
-0.9592387304990074 0.161182802386577 -0.2321231615446026
-0.9717030877889717 0.1077454974026364 -0.2101999452208196
-0.9788724064142682 0.05710216373990022 -0.1963368402948378
-0.9818643972588391 0.006221423204007384 -0.1894824511369128
-0.9808090520538738 -0.0451037419584946 -0.1896819861518813
-0.9756907332777054 -0.09615771938826684 -0.1969296473313758
-0.9663168969261073 -0.1471422019731436 -0.2111417228157262
-0.9514084231744093 -0.2010451377443672 -0.2332442172962313
-0.9271091003726301 -0.2626342794334823 -0.2673797884521329
-0.8971507875136157 -0.3124021809139889 -0.3122904766781754
-0.8639352740298096 -0.3468545933691342 -0.3651133157606956
-0.8268695078514385 -0.3694022935309331 -0.4240622153877959
-0.7680233328199377 -0.4073445373770564 -0.4941766770227289
-0.7275273231318353 -0.3806832467371464 -0.5707751393940441
0 0 0
0 0 0
0 0 0
0 0 0
0 0 0
0 0 0
0 0 0
0 0 0
0 0 0
0 0 0
0 0 0
0 0 0
0 0 0
0 0 0
0 0 0
0 0 0
0 0 0
0 0 0
0 0 0
-0.7567541653165996 0.4146936970517293 -0.5053239267059739
-0.8081442042867146 0.414462851147644 -0.4184775861337832
-0.8481247381982702 0.4046783720860719 -0.3419354377976666
-0.8863858295984421 0.3734670638129393 -0.2735735976552244
-0.9161148346637265 0.3373302592498518 -0.2166608084160128
-0.9409149848979895 0.2938694798322664 -0.1682846398740199
-0.9617810282246784 0.2419077111359111 -0.1282883979168193
-0.9781104036683397 0.1836673527833259 -0.09780767739457992
-0.9890768570751025 0.1255646160005792 -0.07720426158615662
-0.995581710573273 0.06830384736815076 -0.06443323681690453
-0.9982347240729023 0.01124744988153456 -0.05831749759942124
-0.9972339342235033 -0.0458594029401326 -0.05849269693805594
-0.9925592775444686 -0.1029951840676612 -0.06494669059521321
-0.9839618968521862 -0.1604133002083761 -0.07801639993811955
-0.9707620386588159 -0.2187446743203408 -0.09885257586662577
-0.9520130657752809 -0.2772998788475908 -0.129521812001923
-0.928650003027662 -0.3297801132080088 -0.1698653843760863
-0.9012928078638075 -0.3739907479771271 -0.2186371306994357
-0.868844529800365 -0.4111644675638136 -0.2757770179854511
-0.8275109689709506 -0.4437126866873365 -0.3440125694003974
-0.784401617916486 -0.4553016238902536 -0.4212060458883472
-0.7300876339158701 -0.4563511924600611 -0.5086409695879853
0 0 0
0 0 0
0 0 0
0 0 0
0 0 0
0 0 0
0 0 0
0 0 0
0 0 0
0 0 0
0 0 0
0 0 0
0 0 0
0 0 0
0 0 0
0 0 0
-0.6514021070066186 0.5040574893207208 -0.5670990587604854
-0.7029973347998776 0.5397364916820476 -0.4631190633206788
-0.7833747747240756 0.5050559114567362 -0.3622740518290101
-0.8331455678585339 0.4785739192639488 -0.2771921112838956
-0.8699726829873095 0.4487907306830601 -0.2042900166646096
-0.9009093522089238 0.4102578112463666 -0.1416010854966764
-0.9264105953665418 0.3657823339049423 -0.08925633308433749
-0.9477554622373177 0.3157001720805785 -0.0457491546109937
-0.9655263707171937 0.2600950082364044 -0.01046012142319445
-0.9795985049382222 0.2002876773084427 0.016480759727282
-0.9896829196821549 0.13886660077525 0.03526734578235044
-0.9959199191900087 0.07703900086342075 0.04699475403203893
-0.9985033745729982 0.01509017330135993 0.05256707749218024
-0.9975237592394476 -0.0469059037040313 0.05240406425562742
-0.9929671819453632 -0.1088701171467562 0.04651315052686769
-0.9847154217794617 -0.1707224555878276 0.03448740737948468
-0.9725524492006034 -0.2321718342329003 0.01542637166794669
-0.9563377199732882 -0.2920262453880966 -0.01178292666627991
-0.9363887775304071 -0.3477530688065392 -0.0473694041628487
-0.9128054146289774 -0.3980953040442872 -0.09113947510221226
-0.8849094821459618 -0.4430683045689059 -0.1436164541220816
-0.8512820358598601 -0.4824573417587668 -0.2062857455214867
-0.811381605319712 -0.5135353562620236 -0.2791797421333482
-0.7579286614237196 -0.5414624037597485 -0.3638167251613963
-0.6729390018086586 -0.5772278620151374 -0.4625592882628115
-0.6174845794434906 -0.5438379183259292 -0.5682896380723608
0 0 0
0 0 0
0 0 0
0 0 0
0 0 0
0 0 0
0 0 0
0 0 0
0 0 0
0 0 0
0 0 0
0 0 0
0 0 0
-0.6298866367798559 0.5499670547803447 -0.5484332807756974
-0.6932297352814242 0.5738531430706287 -0.4360333752244274
-0.7447353143072749 0.5794761403118909 -0.3310237369628913
-0.7966838165952107 0.5569561780065971 -0.2347226281285459
-0.8374215748672537 0.5245519239391953 -0.1535264962100573
-0.8698605969165428 0.4858204830317225 -0.08556284356435827
-0.8970698472547282 0.4409652097388468 -0.0285547359706337
-0.9202191561035333 0.3909524807234032 0.01878463617740477
-0.9399925467767744 0.3362705555654849 0.05775920241652523
-0.956643345220043 0.2772841656642985 0.08914595626307673
-0.9700622130453584 0.2148344950259821 0.1132494704997423
-0.9800088897886284 0.1502505969353878 0.130412169891536
-0.9863514641953246 0.08455175344619432 0.1412861991452559
-0.9890440370074226 0.01832861644464966 0.1464785126879858
-0.9880697036911674 -0.04804862031814984 0.1463201651624621
-0.9834203849920388 -0.1142600184181887 0.1408154628341105
-0.9751002569662302 -0.1799242059234036 0.1296409232735712
-0.9631526181555841 -0.244437250490873 0.1121938711004521
-0.9477196523904912 -0.3067811684577605 0.08782240689332882
-0.929052855089371 -0.3656549077115381 0.05618968692521929
-0.9072394331706629 -0.4202697549880605 0.0170277403800137
-0.8819579022411885 -0.4703469156369228 -0.03039798718919715
-0.8524133124689365 -0.5155149015548779 -0.0873838142941757
-0.8172892754489509 -0.5549223885392734 -0.1552397595141007
-0.7732979061136924 -0.5884239373794147 -0.2361516849804059
-0.7173665177603883 -0.612528696510154 -0.3319546281465364
-0.6616283388673211 -0.6091667150604491 -0.4372228887765716
-0.5944631106330645 -0.5869625298954507 -0.5496258714754905
0 0 0
0 0 0
0 0 0
0 0 0
0 0 0
0 0 0
0 0 0
0 0 0
0 0 0
0 0 0
0 0 0
-0.5870976642982416 0.5950070348577009 -0.5488924858707718
-0.6558513075536413 0.6229492321146186 -0.4263722746473851
-0.7092550388688761 0.631473231014588 -0.31336695478481
-0.7532688127262401 0.6225898864544825 -0.2120564289489812
-0.7928213179890135 0.5969215482680977 -0.1229594362193483
-0.8266907711473102 0.5606225704711161 -0.0477985604199908
-0.8557033288422224 0.5172556271722614 0.01477934934187563
-0.8810422114729334 0.4682933125643591 0.06682810045468608
-0.9033560268773341 0.4145529541788955 0.1099715276148652
-0.9229068894244402 0.3564873951945883 0.1454634336191775
-0.9396682181954263 0.2944740306876104 0.1740938969752363
-0.9534040977585643 0.2291151613494098 0.1962826258664052
-0.9637925026282875 0.1612773058078212 0.2123526371601543
-0.9705536080462674 0.0918242284918523 0.222697114867363
-0.9734983663340592 0.02147781877443583 0.227683187885293
-0.972530676708879 -0.04915409496077467 0.2275257299927989
-0.967644050246744 -0.1194963689705658 0.2222287331218133
-0.9589258118558505 -0.1889255241642419 0.2115855233135377
-0.9465668040244029 -0.256697396033703 0.1952376305647642
-0.9308590103980607 -0.3219334100447588 0.1728015690255602
-0.9121366727562816 -0.383770660392488 0.1439679493325261
-0.8906304878279646 -0.4416334902982695 0.108338333004939
-0.8663332385895207 -0.4952003227552955 0.06514107811544986
-0.8389131654014003 -0.5441070266728443 0.01312419298239513
-0.807606333466794 -0.5876537393725072 -0.04934665891253601
-0.7710564887913128 -0.6245119843735415 -0.1243248666463516
-0.7282542574080157 -0.6512985821183973 -0.2132038777735157
-0.6803687097025556 -0.6619990905674252 -0.3144131405421554
-0.622507540145207 -0.6557497700035851 -0.4271728006353026
-0.549475282538585 -0.6296694364043607 -0.5491751221034659
0 0 0
0 0 0
0 0 0
0 0 0
0 0 0
0 0 0
0 0 0
0 0 0
0 0 0
-0.5438898555272931 0.6180869691987592 -0.5675846399975881
-0.6091890266761705 0.662124159670759 -0.4364405193810842
-0.6619886319765022 0.6807635824834959 -0.3135793295134661
-0.7053149327546885 0.6788817449689497 -0.2040843501622852
-0.7422206899517441 0.661261303681037 -0.1088206582483846
-0.7752288481958463 0.6311011202592248 -0.02704827041591603
-0.8050019892605542 0.591792214038072 0.04187806932592265
-0.8320270087199005 0.5457377522142871 0.0995055906404836
-0.8566987050933226 0.4942355038957295 0.1476434738834001
-0.879163473438881 0.437951628975343 0.1878029756120091
-0.8993325291691047 0.3772561821505639 0.2210854472991864
-0.9169330770013188 0.3124792563680759 0.2481742263824893
-0.9315675400468295 0.244107277953279 0.2694319119579907
-0.9427935352373547 0.1728376719443554 0.2850745324849372
-0.9502118485995267 0.09948461558896066 0.2952968913520532
-0.9535281455101329 0.02488246625776751 0.3002747718223046
-0.9525836909828226 -0.05014666153683106 0.3001160175836207
-0.9473685938320661 -0.124781262100192 0.2948260233584141
-0.9380265547501563 -0.1981792176534692 0.2843082486911179
-0.9248488471706864 -0.2694743346798504 0.2683993160123616
-0.9082447931326769 -0.3378210959077868 0.2469176034774398
-0.8886740055647238 -0.4025019313137361 0.2196604359511773
-0.86654787141865 -0.4630285686773713 0.1862775647478536
-0.8421389760182556 -0.5190942960057844 0.146092631317198
-0.8155098872429459 -0.5703852135275972 0.09800169385308723
-0.786445625159475 -0.6163313938947584 0.04048322575173604
-0.7544223021348079 -0.6557796442150665 -0.0282851246201439
-0.7187621676547542 -0.6865192560035814 -0.1098738252930471
-0.6785779552858131 -0.7053557811973152 -0.2049516541325036
-0.6311296619459592 -0.7091867620184458 -0.3142124860500787
-0.5734644192288242 -0.6930443475574465 -0.4368387485070663
-0.5036232491740245 -0.6510944115765724 -0.5678377321956992
0 0 0
0 0 0
0 0 0
0 0 0
0 0 0
0 0 0
0 0 0
0 0 0
-0.5771673848277369 0.6734996408981966 -0.4618181932331278
-0.612442633872833 0.7178142934101055 -0.3311444705729773
-0.651182601468419 0.7286064992254031 -0.2123529816869178
-0.6863762342773021 0.7190324968098091 -0.1089951079212324
-0.7180743488594876 0.6956615636895416 -0.02059656075766311
-0.7474097467779697 0.6621216314662423 0.05453086800860811
-0.7750337718631599 0.620789950098147 0.1180783228569184
-0.8012206369470376 0.5731819756780938 0.1717786764646292
-0.8259976098811767 0.520133030989047 0.217231624181954
-0.8491866494553286 0.4620597071118895 0.2557007263394202
-0.8704394697157244 0.3992013085679154 0.2880511149061433
-0.8892777943994102 0.3318181670163283 0.3147724708834045
-0.9051420206864298 0.260336993202551 0.3360692969581432
-0.9174558160971016 0.1854098190179237 0.3519915120018398
-0.9257014215800267 0.1078827302173741 0.3625440588474212
-0.9294872281978944 0.02872915512080318 0.3677337736230372
-0.9285952741511224 -0.05100725485901728 0.3675718661376961
-0.923007342376969 -0.1302525589812464 0.3620659011796621
-0.9129108595870407 -0.207938199058528 0.3512199707026148
-0.8986824272022772 -0.2830484068813044 0.3350425262556661
-0.8808443561629095 -0.3546888303194821 0.3135427464677607
-0.859994609683215 -0.4221643415426142 0.2866819492847517
-0.8367239505256107 -0.4850192346470298 0.2542624090171885
-0.8115404959765065 -0.5429865995158317 0.2157952180573956
-0.7848062699931713 -0.5958521146219118 0.1704094365931678
-0.7566768447248338 -0.6432657170137609 0.1168305181536108
-0.7270420747078258 -0.6845096772547478 0.05344458203728817
-0.6954636105321245 -0.7182396337258383 -0.02149872021758981
-0.6610390724864229 -0.7422875021656146 -0.1097114796865932
-0.6223367349685066 -0.7532312432741959 -0.2129311683721928
-0.579186636974846 -0.7445833978716188 -0.3318710640651306
-0.5394136282764146 -0.7027172164226665 -0.4639196604724277
0 0 0
0 0 0
0 0 0
0 0 0
0 0 0
0 0 0
0 0 0
-0.4562460285523862 0.7306664721036278 -0.5079036010640338
-0.5413121497997512 0.7584141653491229 -0.3630276990492106
-0.5882389456788848 0.7736913933145849 -0.2353222698716154
-0.6242966819284388 0.7713688668201029 -0.1234654779029811
-0.6555385910373802 0.7546644346893524 -0.02739975685523197
-0.6842475625788061 0.7272211222465417 0.05435726688716457
-0.7116397645716217 0.6915257359960792 0.123939509178982
-0.738290024880188 0.6490754744209982 0.1833817539112519
-0.7643384276346435 0.6006899155839229 0.234432065547313
-0.7896315877601762 0.5467439561394171 0.2784833963387433
-0.813805199798815 0.4873715585569153 0.3165281357007832
-0.8363350753233181 0.4226473073061329 0.349160271810546
-0.8565794565964414 0.3527419971440325 0.3766227794329278
-0.8738276119456099 0.2780412756418713 0.3988964196892133
-0.8873637738891511 0.1992065828572845 0.4158151874757902
-0.8965443872624006 0.1171699930491206 0.4271760227320289
-0.9008755161245758 0.03308135831912923 0.4328151200905993
-0.9000754893539246 -0.05176695564842086 0.4326480044645843
-0.8941128368546086 -0.1360233834136083 0.4266847479539407
-0.8832142382298213 -0.2183647639899426 0.4150294438178242
-0.8678401050516591 -0.297587011446373 0.3978636986234618
-0.8486293931538762 -0.3726921099648421 0.3754047738711341
-0.8263222015400346 -0.4429532538602526 0.3478275925464285
-0.8016758864471197 -0.5079307762014175 0.3151540887830108
-0.7753891074883738 -0.5674207899027685 0.2771378342531033
-0.748036233136796 -0.6213458518815795 0.2331761700175781
-0.7200027507447954 -0.6696086350529069 0.182264408984613
-0.6914073351063963 -0.7119185896787401 0.122995197592852
-0.6619909715045289 -0.7475924482348766 0.05360489705868955
-0.6309533461571891 -0.7753168402168752 -0.02795840212111879
-0.5967498007291595 -0.7928114133302029 -0.1238536968486366
-0.556752315199384 -0.796568646635572 -0.2355955235510598
-0.5048104143381449 -0.7831455158120946 -0.3631109288346446
-0.4143866587317298 -0.7564087598431338 -0.5060923681480728
0 0 0
0 0 0
0 0 0
0 0 0
0 0 0
-0.3805079653854765 0.7281615253347917 -0.5700828723092054
-0.45509382146935 0.7849303186943239 -0.4204450124033458
-0.5132893442696308 0.8118136917459985 -0.278374889228509
-0.5546415260641875 0.8176381127407135 -0.1544043204026132
-0.5873421026402796 0.8078851761615685 -0.04848501422590553
-0.6159930737310768 0.786664354151286 0.04137302289027873
-0.6429046085529992 0.7568405280827055 0.1177543177671431
-0.6692282919033828 0.720111343784832 0.1832297625073046
-0.6954522775725807 0.6773131129228039 0.2399855759872468
-0.7216355442564054 0.6287344652900912 0.2897155733165618
-0.7475379073431482 0.5743550142952411 0.3336216339492083
-0.7726964904735092 0.5140305725191044 0.372441544575257
-0.7964748394522021 0.44765008657973 0.4064938254202001
-0.8181054295460952 0.3752733149316346 0.4357447019154918
-0.8367414403747775 0.297242500804848 0.4599028785241746
-0.851527059827876 0.2142504749605751 0.4785377731799866
-0.861685179726057 0.1273505124287405 0.4912031128002034
-0.8666103890342273 0.03790755292607911 0.4975434162453578
-0.8659494048062808 -0.05249767865579801 0.4973686983027781
-0.8596523097936597 -0.142195450822323 0.4906917158785762
-0.8479835795835577 -0.2295672124100158 0.4777266412321485
-0.8314899359721178 -0.3131803013329574 0.4588491966148363
-0.8109312327357936 -0.3918968402759005 0.4345197375901014
-0.7871891013450664 -0.4649367572411965 0.4051754317448021
-0.7611719340795873 -0.5318807361737664 0.3711066817733039
-0.7337303355127568 -0.5926127437021858 0.3323400829724036
-0.7055858336001204 -0.64721719870496 0.288545540813451
-0.6772644954127154 -0.6958487905034897 0.2389712618876792
-0.6490199546053764 -0.738581813148842 0.1824006683370525
-0.6207260231614109 -0.7752294499276636 0.1171260181815771
-0.5917157654795057 -0.8051059620042046 0.04094927140116401
-0.5605271545105761 -0.8267024011293376 -0.04870779222325908
-0.524429067819578 -0.8373349846576127 -0.1544159198215116
-0.4784134370350475 -0.832950664913952 -0.2780535435554049
-0.4142539275510649 -0.807829944826991 -0.4192904288787627
-0.3337860361284665 -0.7526468006999835 -0.5675470689570377
0 0 0
0 0 0
0 0 0
0 0 0
-0.4070638343001632 0.7686191861645207 -0.4934810852146599
-0.4434063720261729 0.827993050672845 -0.3432467003250898
-0.4821169122107569 0.8516695165055584 -0.2054806988881263
-0.5151400009155761 0.8527248359593936 -0.0865513350256624
-0.5436995747358946 0.8391634095802789 0.01398372102150979
-0.5699476758021348 0.8157080116971123 0.09889431986159736
-0.595387044301969 0.784955643065143 0.1713444072549555
-0.6208557427038263 0.7481346908107404 0.2341636845396776
-0.6467043345840111 0.7056261340758638 0.2895949974350412
-0.6729277342423651 0.6573228075474968 0.3392565270784225
-0.6992452487614139 0.6028759984188534 0.3841830457152663
-0.7251485647822558 0.5418784365866283 0.4248850655844064
-0.7499356504321724 0.4740188126781914 0.4614137898221417
-0.77274706278506 0.3992225764569176 0.493440281497328
-0.7926189050112661 0.3177742528983218 0.5203602556053398
-0.8085611044890167 0.2304023166791135 0.5414274769314891
-0.8196598014669112 0.1383041939132316 0.5559044520466033
-0.8251906154356394 0.04309739060206115 0.5632078329713136
-0.8247207283023361 -0.05330189018066125 0.5630227604738839
-0.8181760999294199 -0.1488547988497753 0.5553648515738784
-0.8058568476625819 -0.2415992781428934 0.5405779591105785
-0.7883966090857952 -0.3298352807501698 0.5192682104216237
-0.7666762910318512 -0.4122613821894609 0.492186974151977
-0.741713240915769 -0.4880405482649194 0.4600846568833857
-0.7145493571039424 -0.5567901545403279 0.4235610228400385
-0.6861548534169725 -0.6185086841764628 0.3829340997229592
-0.657352398318648 -0.6734615534017974 0.3381380790658732
-0.6287549671892987 -0.7220459194891435 0.2886466375758782
-0.6007036470205446 -0.7646403741663803 0.233409996895836
-0.5731883082621979 -0.8014258497588412 0.1707974549278705
-0.5457334902666541 -0.8321426382616077 0.09855753237772505
-0.517235335869065 -0.8557310245695818 0.01385716123556968
-0.4857768894218105 -0.8697958906685408 -0.08646341584617892
-0.4487156216002085 -0.8698051170270719 -0.2051666379445243
-0.4045654725750613 -0.8478396353396291 -0.3427750445223243
-0.3623729260626052 -0.7905480926302876 -0.4936796286008154
0 0 0
0 0 0
0 0 0
-0.2901981523305263 0.7599015232385445 -0.5816654600057386
-0.3690372769456148 0.8274001235558229 -0.4233444504943624
-0.410768141301954 0.8692745000696446 -0.2750115954282779
-0.4426371441059408 0.8852542125593588 -0.1428192487154505
-0.4698793978645225 0.8822350637165021 -0.02957437762003536
-0.4946962311455324 0.8665565903608223 0.06599480731566165
-0.5185540868803566 0.8423163633109025 0.1469857240631698
-0.542411144925818 0.8116736561123286 0.2167395345420583
-0.5668112499402255 0.7754740226199298 0.2781457301179779
-0.5919704000910136 0.7337576819948834 0.3334227189763469
-0.6178346531195962 0.6861105297011016 0.3840998339466724
-0.6441107038464315 0.6319049422309442 0.431065592659123
-0.6702808013489875 0.5704832211518106 0.4746288462864569
-0.6956153210337249 0.5013206461218264 0.5145842350044758
-0.7191971715032064 0.42418381171208 0.55029403266181
-0.7399715952421566 0.3392783354208657 0.5808031072134718
-0.7568304066127647 0.2473620168945088 0.6049956762029273
-0.7687295557072451 0.1497906921940331 0.6217858302616531
-0.7748250347233077 0.04846918377747801 0.6303149242957596
-0.7745996922197392 -0.05430079137249539 0.6301164502450366
-0.7679492555510656 -0.1560553353385434 0.6212090414755231
-0.7552035369336618 -0.2544384266950551 0.6040932914905043
-0.7370768712463968 -0.3474475403384186 0.5796532520278005
-0.7145623621148868 -0.4336038712693467 0.5489884456607705
-0.6887984015763302 -0.5120213674786965 0.5132162129464908
-0.660937592651167 -0.5823781878534142 0.4732833664233855
-0.632039052625494 -0.6448158970100035 0.4298128603467468
-0.6029908794743419 -0.6997991264948377 0.3829924043996453
-0.5744571771568453 -0.7479609942662159 0.3324955678941936
-0.5468365456427622 -0.7899422474074037 0.2774185251752863
-0.5202163182790172 -0.8262104488206315 0.2162204348710686
-0.4943073625527337 -0.8568233993575937 0.1466761522520179
-0.4683496441483192 -0.8810825848369145 0.06589453333352568
-0.4410003866974795 -0.8970231991748699 -0.02946250285964331
-0.4102654084611813 -0.9007664173637435 -0.1424856342578623
-0.3734412724307688 -0.8861324657773212 -0.2744282586409285
-0.3252983465176669 -0.8460743478865146 -0.4223022420036159
-0.2399755570534585 -0.7798254602023863 -0.5781729703445311
0 0 0
0 0 0
-0.3183749839278935 0.7900590093833447 -0.5238741559774841
-0.3464025677896234 0.8644161240789869 -0.3644036573101542
-0.373508635360545 0.9016751006827463 -0.2178837123785583
-0.3975767540672951 0.9131091573815755 -0.09035702148268192
-0.4197108705392546 0.9074825669991522 0.01783748143122726
-0.4410316827056537 0.8908256352334596 0.1091821526657258
-0.4623820976606589 0.8667013715484766 0.1871671133477188
-0.4843270453024561 0.8368359421843335 0.2552115182687694
-0.507192396153102 0.8017406634245601 0.316176820617863
-0.5310961176561401 0.7611783087385759 0.3722156580753366
-0.5559594083290111 0.7144810752993975 0.4247657346461365
-0.5815011979968984 0.6607740274241177 0.4745882862122522
-0.6072251722035488 0.5991565248612063 0.5218132318738311
-0.6324109962844089 0.5288777833376385 0.5659899487362182
-0.6561236021638328 0.449521378577844 0.6061619823817973
-0.67725523924842 0.3611897857444312 0.6409892975584353
-0.6946111787858342 0.2646573171869435 0.6689333410476433
-0.7070393853757142 0.1614452198032713 0.6884989096071285
-0.7135878990533335 0.05377507506250559 0.6984987842700021
-0.713657102937961 -0.05561859384930694 0.6982836898026631
-0.7071062740187705 -0.163792913362339 0.687875423878167
-0.6942823456037546 -0.2679513491754765 0.6679626479512084
-0.675962281069808 -0.3657611411954166 0.6397607225848799
-0.6532279674447036 -0.4555619088300088 0.6047781161477486
-0.6273101352941969 -0.5364353010809699 0.5645521782008681
-0.5994391241306496 -0.60814922187038 0.5204106651481408
-0.5707280119733622 -0.6710177445013048 0.4732913721095226
-0.5420964561958236 -0.7257230180717668 0.4236242830867172
-0.5142291241827358 -0.7731327596312857 0.3712602104012335
-0.4875546423664079 -0.8141248968424331 0.3154221346834444
-0.4622285889490275 -0.8494071061166006 0.2546611466965706
-0.4381054063254854 -0.8792966759484767 0.1868181163975814
-0.4146890425380718 -0.9034078206452989 0.1090289300863223
-0.3910670823807826 -0.9201886106678396 0.01787338455281259
-0.365871055230534 -0.9262897350512538 -0.09014265185345509
-0.3373892260111741 -0.9158894285068121 -0.2175202632424058
-0.3042645875880348 -0.8802991264869358 -0.3640006986891926
-0.2697993747916789 -0.8078634619326646 -0.5239894314165016
0 0 0
0 0 0
-0.2994238235211214 0.8303704948644867 -0.4699257549512469
-0.3118718468001169 0.8975775287030799 -0.3115935351395394
-0.3292181813812555 0.9289835593435938 -0.1691299367862634
-0.3471509622025155 0.9366504190972146 -0.04660688626028658
-0.3650064287793382 0.9292596530229137 0.05698073545934193
-0.3830708738576754 0.9122996298472822 0.1447967229685393
-0.4017468230659485 0.8887977564826802 0.2205403324287219
-0.4213507276640408 0.8600776652491836 0.2876281871383533
-0.4420787194715652 0.8263572482776834 0.3488554199225164
-0.4639995411053853 0.7871632356584581 0.4062984940677209
-0.487039346033315 0.7416082656904254 0.4613131861057949
-0.5109550470924634 0.6885914419576148 0.5145549202111187
-0.5353025604511703 0.6269749288618234 0.5659978863504104
-0.5594105796579855 0.5557725373766462 0.6149607223755353
-0.5823743390538648 0.4743647401136135 0.6601652994125919
-0.6030860242812283 0.3827279513407261 0.6998618167747057
-0.6203158960177879 0.2816371258442896 0.7320442052866865
-0.6328472993430697 0.1727789378663004 0.7547527637206607
-0.6396498339258817 0.05871182229152148 0.7664209103891934
-0.6400536779241628 -0.05736011550724204 0.7661860782634643
-0.6338761176222157 -0.1719724936873793 0.7540732914797675
-0.6214595409685691 -0.2818541178041697 0.7309899419389899
-0.603609000972032 -0.3843267959554802 0.6985335266514697
-0.5814518068307123 -0.4775550851515126 0.6586766558632778
-0.5562633617019564 -0.5606115402868092 0.6134213668639926
-0.5293042055363516 -0.6333840915861371 0.5645012405009709
-0.5016978901035217 -0.6963862319480476 0.5131719429381093
-0.4743585215242234 -0.7505330997013251 0.4600913597429024
-0.4479603400323247 -0.7969267989507378 0.4052643715801494
-0.4229330562845006 -0.8366662223571113 0.3480190544618667
-0.3994649801419894 -0.8706696402446614 0.2869879913801119
-0.3774982654132089 -0.899475802341945 0.2200871205030679
-0.3567069557399634 -0.9229709681240406 0.1445155345521671
-0.3364656841416154 -0.9399782407680313 0.05684848527226579
-0.3158685217218121 -0.9476563314735749 -0.04663211772289969
-0.2940092058436546 -0.9407176105441423 -0.1691418460680324
-0.2711684347202184 -0.9106140206045283 -0.3118489786576854
-0.2526478000173736 -0.8450469063809051 -0.4712375358165371
0 0 0
0 0 0
-0.2499342044549261 0.870785717313504 -0.4233971279617861
-0.2620347344852745 0.9274756494332463 -0.2666959272872551
-0.2766643461009702 0.9522947984366555 -0.1288078276620299
-0.2913449532905593 0.9565543016159006 -0.01104473866769844
-0.3060459833537758 0.9478859317701022 0.08858959546890886
-0.3211371576600738 0.9309838248361609 0.173608881867952
-0.3369574485121064 0.908330860377296 0.2477795915293502
-0.353752312624504 0.8808884924628337 0.3144753808478027
-0.3716780926658597 0.8486226956689914 0.3764238513003156
-0.3908014952297129 0.810859187313868 0.4356392655338971
-0.4110815936824443 0.766518960138455 0.4934172748128735
-0.4323371161112434 0.7142949666811609 0.550333824697857
-0.4542061265798303 0.6528222409936303 0.6062342090656061
-0.476108601821951 0.5808785210628646 0.660227796324091
-0.497226641390925 0.4976308708508836 0.7107244075359245
-0.516520705774423 0.4029137319839034 0.7555573340819971
-0.5327991305888814 0.2974877225384491 0.7922285916215208
-0.5448482724689141 0.1831979915258538 0.8182779820382144
-0.5516103827845797 0.06294528550326091 0.8317234375903818
-0.552371218622802 -0.05958030597948667 0.8314663095859932
-0.5469023480997351 -0.1803736634678346 0.8175348085373416
-0.5355097634954612 -0.2956776419178235 0.7910777618356806
-0.5189728533621708 -0.4024722235718586 0.7541109246830004
-0.4983980194320718 -0.4987650421006368 0.7091070772489425
-0.4750362035839267 -0.5836459920634309 0.6585574851391963
-0.4501144203054095 -0.6571492114964836 0.6046089004163553
-0.4247135089156016 -0.7200062465223739 0.5488255098966875
-0.3997009373078894 -0.7733721450967017 0.4920718300245606
-0.3757091774098781 -0.8185778574077607 0.4344800402454775
-0.3531413988550243 -0.856926678846138 0.3754568144227027
-0.3321848858024171 -0.8895218803757325 0.3136941599348888
-0.3128153679642492 -0.9170899636328274 0.2471690598949027
-0.294780379896072 -0.9397472889741774 0.173146066931972
-0.2775607654383933 -0.9566470845856118 0.08824045015242092
-0.2603414264002893 -0.9654500803239771 -0.01133508280906313
-0.2421236778528839 -0.9616129498941248 -0.1291381400629251
-0.2224501475478166 -0.9375932737101161 -0.2672728660928773
-0.2045140716443009 -0.8819020525319192 -0.4247620089408385
0 0 0
-0.08181730683545688 0.8289184534975063 -0.5533535269188178
-0.1682579413569895 0.9067487380615086 -0.3866471145555966
-0.200383261142558 0.9517117716520784 -0.2325752616955097
-0.2180410928632988 0.9709901642803476 -0.0981640600922823
-0.2314163775655387 0.9727209807598539 0.01613548214438118
-0.2436199288091784 0.9632735052533348 0.1129313258753468
-0.2558087996660685 0.9466465279488544 0.1960158389921161
-0.2685057959321104 0.9248881411958718 0.2692332888520816
-0.2819920770738751 0.8986763796096232 0.3359482597057193