# OOMMF: rectangular mesh v1.0
# Segment count: 1
# Begin: Segment
# Begin: Header
# Title: 
# Desc: time = 1.08e-09
# Desc: stepsize = 8.788507737213218e-14
# Desc: step = 6910
# meshunit: m
# valueunit: (none)
# valuemultiplier: 384000.0000000001
# xmin: 0
# ymin: 0
# zmin: 0
# xmax: 9.357999999999999e-08
# ymax: 9.357999999999999e-08
# zmax: 2.3395e-08
# ValueRangeMaxMag: 1
# ValueRangeMinMag: 0
# meshtype: rectangular
# xbase: 1.16975e-09
# ybase: 1.16975e-09
# zbase: 1.16975e-09
# xstepsize: 2.3395e-09
# ystepsize: 2.3395e-09
# zstepsize: 2.3395e-09
# xnodes: 40
# ynodes: 40
# znodes: 10
# End: Header
# Begin: Data Text
0 0 0
0 0 0
0 0 0
0 0 0
0 0 0
0 0 0
0 0 0
0 0 0
0 0 0
0 0 0
0 0 0
0 0 0
0 0 0
0 0 0
0 0 0
0 0 0
-0.8329626864599533 0.04055929806229717 -0.5518406530023955
-0.843346165370211 0.05979654864204122 -0.5340333492637515
-0.8546649110130593 0.04102283931454494 -0.5175567761488703
-0.8610872004259527 0.006413096001646052 -0.5084168618980573
-0.8607518644407913 -0.03281643782144861 -0.5079658544335552
-0.853685361770796 -0.06800494638938531 -0.5163299626835938
-0.841824822839795 -0.08785554742093277 -0.5325526926400009
-0.8311711458398242 -0.06974588584632856 -0.5516249067353864
0 0 0
0 0 0
0 0 0
0 0 0
0 0 0
0 0 0
0 0 0
0 0 0
0 0 0
0 0 0
0 0 0
0 0 0
0 0 0
0 0 0
0 0 0
0 0 0
0 0 0
0 0 0
0 0 0
0 0 0
0 0 0
0 0 0
0 0 0
0 0 0
0 0 0
0 0 0
0 0 0
0 0 0
-0.7738223298159864 0.2488676893176509 -0.5824636255525757
-0.8023334108515298 0.279483721928226 -0.5273992292452613
-0.8402547403254921 0.2629969883123914 -0.4741355876741915
-0.8780330045667278 0.2154371915475832 -0.4273696987265401
-0.9115042184568009 0.1341046682781015 -0.3888135770282158
-0.9256333755191852 0.09396507424230884 -0.3665698009214557
-0.9347716274990562 0.05538808123796286 -0.3509047803600597
-0.9394733124731375 0.01274379918534419 -0.3423850036626508
-0.9391999647425167 -0.03186207058122283 -0.341889214053225
-0.933944442105089 -0.07503456151326927 -0.3494532781925571
-0.9242153160922602 -0.1146401935078117 -0.3642577048368016
-0.9093407413510801 -0.156115502314854 -0.385651871583749
-0.8746136704521729 -0.2380533059263505 -0.4223524014323969
-0.8352221452618639 -0.2878818514342043 -0.468538160323131
-0.7957630424230172 -0.3072483968351692 -0.5218808321407108
-0.7661891308151473 -0.2795986588649579 -0.5786007308858551
0 0 0
0 0 0
0 0 0
0 0 0
0 0 0
0 0 0
0 0 0
0 0 0
0 0 0
0 0 0
0 0 0
0 0 0
0 0 0
0 0 0
0 0 0
0 0 0
0 0 0
0 0 0
0 0 0
0 0 0
0 0 0
0 0 0
-0.7455396538081623 0.3408544733697525 -0.5727031103315517
-0.7839214013688951 0.3704021416214979 -0.4982664848833754
-0.8403162495232902 0.3342273551215932 -0.4268028536403374
-0.8751830204192219 0.3140390103044625 -0.3680138323173202
-0.9062026437320683 0.2816855877002108 -0.3153569377308774
-0.9339935184084016 0.2336281921687856 -0.2703219846683565
-0.9563028148536873 0.1732118483838423 -0.2355474089909849
-0.9696085468891363 0.1203571548082177 -0.2130103778833501
-0.977597205997544 0.0701695813007005 -0.1984437771407293
-0.9814239086966663 0.01960345407197438 -0.1908476251542184
-0.9812212510358828 -0.03155257167462116 -0.1902873924785728
-0.9769656132316398 -0.08258674386122354 -0.1967679351452521
-0.9684665161047801 -0.1337050327728551 -0.2102274277897129
-0.9544813977607178 -0.1878919269718295 -0.2316503509765484
-0.9312304315697015 -0.2498785454103992 -0.2652745669341298
-0.9022448720972061 -0.3001312935031936 -0.3096375258821116
-0.8699036032771055 -0.3351670259108871 -0.3618435929342378
-0.8336595222919514 -0.3584218843551202 -0.4201732424932356
-0.7759059455694157 -0.3971571810009825 -0.4901388958340103
-0.7360667907315074 -0.3713580204130562 -0.5659495562831682
0 0 0
0 0 0
0 0 0
0 0 0
0 0 0
0 0 0
0 0 0
0 0 0
0 0 0
0 0 0
0 0 0
0 0 0
0 0 0
0 0 0
0 0 0
0 0 0
0 0 0
0 0 0
0 0 0
-0.7491166609721077 0.4204484305267213 -0.5119056021588515
-0.8011676358317508 0.4213959586287137 -0.4249186573300234
-0.8417272664937588 0.4127480303540882 -0.3480434919370925
-0.8806665941087994 0.3826131777685093 -0.2793447801887293
-0.9110355358741594 0.3474867486427077 -0.2219621857258617
-0.9365134702817776 0.3049500978867458 -0.1730547825968572
-0.95813095618413 0.2538282718733231 -0.1325001101866949
-0.9752759282858352 0.1963413308206392 -0.1014245804417361
-0.9870601428568813 0.1388824394852186 -0.08014950022293919
-0.9943913032816434 0.0821252793728306 -0.06664363769909858
-0.9978896416960257 0.02541349087161304 -0.05975297044913373
-0.9977525001352746 -0.03151791863129044 -0.05913179583742918
-0.993953573206417 -0.08865253161968976 -0.06478443445469712
-0.9862419976861113 -0.1462436932493653 -0.07706817880872401
-0.9739459348718092 -0.2049123409850794 -0.0971609410138216
-0.9561210445067496 -0.2639429997663597 -0.1271481070470843
-0.9336340691555767 -0.3170103987729906 -0.1668287504652262
-0.9070920486962755 -0.3619148853650489 -0.2149456464857952
-0.8754353024937285 -0.3998931573560552 -0.2714746652038069
-0.8349506279061339 -0.4333396734584059 -0.3392258486113846
-0.7925900001089018 -0.4459032343594153 -0.4158983016497933
-0.7391095063733186 -0.4479956943759779 -0.5030079476600484
0 0 0
0 0 0
0 0 0
0 0 0
0 0 0
0 0 0
0 0 0
0 0 0
0 0 0
0 0 0
0 0 0
0 0 0
0 0 0
0 0 0
0 0 0
0 0 0
-0.642743491122209 0.5075935934647428 -0.5737852808268817
-0.6948474870265714 0.5445251009700146 -0.4697652436977999
-0.7761899385302073 0.5110398010410973 -0.3692797057466709
-0.8266176785138819 0.4857914404442251 -0.2840948608465923
-0.863992084609375 0.4572146461434289 -0.2108849095698529
-0.895481562279191 0.4198453218881502 -0.1477926835356008
-0.9215461048481359 0.3764784644083493 -0.09495652940140034
-0.9435018974358212 0.3274357804005398 -0.0508918387218794
-0.9619570012116822 0.2727892694177082 -0.01499140788518171
-0.9767869837916429 0.2138410528765474 0.01261714705762705
-0.9876803790957465 0.1531497093451369 0.03213464293845301
-0.9947675137794456 0.0918915580204115 0.0446490211946561
-0.9982355200541447 0.03032847955687444 0.05104928824184237
-0.9981644045078758 -0.0314802675460887 0.05173793896806989
-0.9945267916764376 -0.09346208351662118 0.04670438504576219
-0.9871915695683434 -0.1555343830550729 0.03552267812071157
-0.9759314079948218 -0.217392502380554 0.01727387617081281
-0.9605896867327678 -0.2778190697022535 -0.00916614708678298
-0.9414549038207207 -0.3342525019665109 -0.04402191500882507
-0.9186229852599141 -0.3854160577999222 -0.08709921550811836
-0.8914404128338689 -0.4313128358373676 -0.1389360572655946
-0.8585264474697986 -0.4717132293352532 -0.2010446922079595
-0.8193427742147695 -0.5038764203492441 -0.273470238523457
-0.7667350189560659 -0.5329535958385591 -0.357879694016286
-0.6829322384317428 -0.5698757449798491 -0.4569958347668727
-0.628150945908067 -0.5376312248103288 -0.5624758263816729
0 0 0
0 0 0
0 0 0
0 0 0
0 0 0
0 0 0
0 0 0
0 0 0
0 0 0
0 0 0
0 0 0
0 0 0
0 0 0
-0.6214134367531153 0.5522187217356231 -0.5557875709183822
-0.6853507875997882 0.5774867338591133 -0.4436252586959891
-0.7373933878114372 0.5844557325920879 -0.3386184995717401
-0.7899692528352659 0.563247416626645 -0.2422827423451814
-0.8312255347039762 0.5321468523314609 -0.1608845486981474
-0.864115428684792 0.4947031414248783 -0.09259226627129422
-0.8917738342644266 0.4511128527303868 -0.0351656454906619
-0.9154070028186166 0.4023300351496285 0.01267130644941179
-0.9357321941335287 0.3488246229717922 0.05221726985048666
-0.9530254775593638 0.2909375153116464 0.08424844987910063
-0.9671832189752828 0.2294777989192073 0.1090713561656092
-0.9779548760920305 0.1657358427403837 0.1270271260753209
-0.9851938509890141 0.1006933263889088 0.1387585312482515
-0.9888366117412042 0.03491085492653361 0.1448564375113263
-0.9888448238861639 -0.03126125245465596 0.1456318933767841
-0.9851860548089458 -0.09751131649698294 0.1410672909111439
-0.9778393689883701 -0.1634536412779382 0.1308169545946115
-0.9668237405657409 -0.228466488307091 0.1142581218080095
-0.9522581938024895 -0.2915019683377695 0.09072449939914481
-0.9343755213178712 -0.3512230038786936 0.05987308834846283
-0.9132621866129249 -0.4068080389636484 0.02143357034022236
-0.8886160743152268 -0.4579516243058196 -0.02533342188209178
-0.8596751481953173 -0.5042599624035499 -0.08173450857580852
-0.8251619389136857 -0.5448646636273073 -0.1490981988439406
-0.7818621983631046 -0.5796091149707984 -0.2296623099543775
-0.7267494671006119 -0.6049840373985644 -0.32531450407553
-0.6717299434206081 -0.6029180972638991 -0.4304284506208035
-0.605351201267221 -0.5820552058507942 -0.5429195709000749
0 0 0
0 0 0
0 0 0
0 0 0
0 0 0
0 0 0
0 0 0
0 0 0
0 0 0
0 0 0
0 0 0
-0.578779026593786 0.5959292303508936 -0.5566715286311492
-0.6481513020481318 0.6253408684499087 -0.4345672420922049
-0.7020624457236381 0.6353201656108788 -0.3216778038234975
-0.7465099995106904 0.6278464300868308 -0.2202990713956149
-0.786474729608594 0.6035608518069884 -0.1310412066989275
-0.8207027558509723 0.5686407581669634 -0.05562980037641439
-0.8500462448081062 0.5266577649600998 0.007278756409501552
-0.8757350592907078 0.4790823950773557 0.05973411634940468
-0.8984585083515328 0.4267178014498228 0.1033645330689768
-0.9185124436145898 0.3699915478687291 0.1394315080276195
-0.9358934320314302 0.3092453981796948 0.1687328290082053
-0.9503741850492866 0.2450366197891716 0.1916923664473904
-0.9616262640948899 0.1781812743045308 0.2086297238892813
-0.9693522446142379 0.109494832094799 0.2199252318536231
-0.9733370614985801 0.03965957014967744 0.2259249503902819
-0.9734520580334072 -0.03074311870253532 0.2268169997221662
-0.9696540498326642 -0.1011488474203189 0.2225756822041741
-0.9619926420260755 -0.1709275844289794 0.2129645922893385
-0.9506233514692976 -0.2393114883166891 0.1975987226702912
-0.9358090103912251 -0.3053836403166625 0.1760747804131494
-0.9178658940002421 -0.3682345626426871 0.1480726426673232
-0.897023936953353 -0.4272420574824058 0.1131913461838256
-0.8732931177629518 -0.4820437195538218 0.07066104235417828
-0.8463736158435783 -0.5322422683745388 0.01923200871962251
-0.8155446434745561 -0.5771143541010944 -0.04273121564424325
-0.7795029953526912 -0.6153192623285033 -0.1172914559705352
-0.7372714071928805 -0.6434716896399246 -0.2058520263873293
-0.6899862183695292 -0.6555707051885243 -0.3068323140719315
-0.6328189222815335 -0.6507771297844627 -0.4195585048022915
-0.5606083382737974 -0.6261762155293744 -0.5418686539773281
0 0 0
0 0 0
0 0 0
0 0 0
0 0 0
0 0 0
0 0 0
0 0 0
0 0 0
-0.535862167427783 0.6175821995940556 -0.5757117023859825
-0.601725069288641 0.6631828926858169 -0.4451015522759404
-0.6549997502007709 0.6833676302563992 -0.3224655162256578
-0.6986974541636595 0.6829789556693101 -0.212982660463426
-0.735890095314115 0.6668094872041285 -0.1176047422221956
-0.7691354735253537 0.6380907917960524 -0.03564778801014443
-0.7991147947344623 0.6002433408620091 0.0335183022737034
-0.8263483478611364 0.5556855422967452 0.09144389574783993
-0.8512735800676619 0.5057141464032701 0.13995175599612
-0.8740782529988869 0.4509777570974925 0.1805720638352687
-0.8947089492663363 0.3918131178138054 0.214425690652386
-0.91291805663745 0.3285027751494334 0.242211784569665
-0.928319169772153 0.2614739026027434 0.264300808343885
-0.9404649103873574 0.1913587674104022 0.2809049206854001
-0.9489355933927105 0.1189086053027292 0.2922019561491391
-0.9534030447955674 0.04490547260910134 0.2983389560622176
-0.9536644619120217 -0.0298638383795658 0.2993864479953837
-0.9496597949919866 -0.1045916493105705 0.2953080775567644
-0.9414816005604808 -0.1784263815347371 0.2859657709910311
-0.9293746714270064 -0.2504697791411976 0.2711597496807054
-0.9137122000774461 -0.3198261266861533 0.2506815990825114
-0.8949331667550063 -0.3857170762831416 0.2243144313356594
-0.8734470581775319 -0.447592394617292 0.1917062462252413
-0.8495429731666365 -0.5050895006253454 0.1521884788715291
-0.8233153592243488 -0.5578493777200396 0.1046703923879388
-0.7945925047653518 -0.6052707682977327 0.04764502508128213
-0.7628995942887328 -0.6461855633601524 -0.02069847190032633
-0.7276012570982913 -0.67838593875671 -0.1019260946282286
-0.6878383610065431 -0.6986991498675946 -0.1967177854240247
-0.6409187268743849 -0.7040552428278873 -0.3058257683523112
-0.5839157468232172 -0.6894978120890648 -0.4285267409815592
-0.5148482649354369 -0.6491571015629054 -0.5599342118351205
0 0 0
0 0 0
0 0 0
0 0 0
0 0 0
0 0 0
0 0 0
0 0 0
-0.5701923550131791 0.6731219896246327 -0.4709431657517709
-0.6057806371350953 0.7190817019436645 -0.3405162633443519
-0.6448230140847021 0.7314391140547625 -0.22181096216712
-0.6802321971731281 0.7233688095047663 -0.1184133580499892
-0.712064356065382 0.7014770325895708 -0.02990527663343811
-0.7414835162210743 0.6694354532192568 0.04536925330616853
-0.7691753422114223 0.6296562349126291 0.1090977486916789
-0.79545416670922 0.583672972840374 0.1630292287923239
-0.8203913956468245 0.5323197381084401 0.2087909345944321
-0.8438526304503354 0.475991554855819 0.2476787794462595
-0.865528240485706 0.414886176957259 0.2805892462150089
-0.8849689621906438 0.3492036301169604 0.3080369469273955
-0.9016296982800162 0.2792952679224313 0.3302393684823534
-0.9149304248504545 0.2057295120851698 0.3472429776686118
-0.9243300163359491 0.1292707392641757 0.3590307742666032
-0.9293950835861249 0.05082326907451978 0.3655704773727196
-0.9298512374954976 -0.02861601106773588 0.3668212099083995
-0.9256152475139929 -0.1079911137953783 0.3627317644084158
-0.9168085585588284 -0.1862197456225631 0.3532481752161652
-0.9037489723717232 -0.2622428770072093 0.3383289352036497
-0.8869145579605312 -0.3350998459184014 0.3179475745199806
-0.8668787850944744 -0.4040166006859021 0.2920475275076574
-0.8442296612646637 -0.468457053090602 0.260430928368002
-0.819492723770346 -0.5280820324884324 0.2226230955007697
-0.7930637955753227 -0.5826192520645962 0.1777768918373597
-0.7651437782525143 -0.6316790544920533 0.1246457809855269
-0.7356740500616515 -0.6745249405952674 0.06164249006032221
-0.7042677344453657 -0.7098160771124643 -0.01296514141316793
-0.6700704392248156 -0.7354094524649162 -0.1008887689602494
-0.6316957769275561 -0.7479223037169807 -0.2038937787539757
-0.5889865808273846 -0.7409011471612358 -0.3227387453350324
-0.5496731753918656 -0.7007286751484194 -0.4547952551196677
0 0 0
0 0 0
0 0 0
0 0 0
0 0 0
0 0 0
0 0 0
-0.4490703365840505 0.7288790379330443 -0.516789300258903
-0.5348976461525818 0.7582878148777069 -0.3726715684733931
-0.5822007986319685 0.7751843002873596 -0.2452173131332575
-0.6184631310589919 0.774405322821669 -0.1334157093680283
-0.6497888253124869 0.7591979311288775 -0.03732269910724421
-0.6784958225097305 0.7332558612334549 0.04448888404565731
-0.7058389552444728 0.6991169698340723 0.1141351468628966
-0.7324343125211769 0.6583174390816956 0.1736609548590247
-0.7584665896371826 0.6116974143643553 0.2248437361015492
-0.7838298895420016 0.559630575670329 0.2691176750707185
-0.8082076571994158 0.5022259802607402 0.3075214587559212
-0.8311197212598833 0.4395084379999039 0.3406939122728467
-0.8519591379491683 0.3715749056462723 0.3689142403850426
-0.8700346798226275 0.2987168078616462 0.3921835343393262
-0.8846290977695705 0.2214894171249149 0.410333763515824
-0.895073026891221 0.1407190005057662 0.4231340679128131
-0.9008225229449645 0.05746481266839545 0.4303679558936217
-0.9015260606776592 -0.02704259070990732 0.4318789879199005
-0.897070585036944 -0.111474571733462 0.4275953523114063
-0.887600126153873 -0.1944885312478767 0.4175406893521537
-0.8735024999372603 -0.2748218920215091 0.4018287076218847
-0.8553633834152368 -0.351389324668228 0.3806297739558014
-0.8338944849236759 -0.423361796089027 0.3540971302145071
-0.8098506497442374 -0.4901972840988507 0.3222554076674998
-0.7839510141515805 -0.5516011268116309 0.2848806843414395
-0.7568081276882744 -0.6074246021453367 0.2414059041812087
-0.7288575390735782 -0.6575226541821083 0.1908681402773192
-0.7002743736064606 -0.7015824900282808 0.1319007632873891
-0.6708581143190043 -0.7389242425029788 0.06277224142682593
-0.6398664469393203 -0.7682620886144398 -0.01855514157930396
-0.6058109974192665 -0.7873618931858068 -0.1142553480793566
-0.5661140744599047 -0.7927692136930748 -0.2259022543465837
-0.5146867538537636 -0.7810807278015087 -0.3535681575941756
-0.4252235013897896 -0.7561491666477247 -0.4974167384032813
0 0 0
0 0 0
0 0 0
0 0 0
0 0 0
-0.373680864877558 0.7247386669546989 -0.5788924561998416
-0.4488585306745619 0.7832621403886383 -0.4301469968214142
-0.5075542530585392 0.811863696268676 -0.2885585189925094
-0.5491828251587655 0.8192973295556946 -0.1647729053380545
-0.5819829219654287 0.8110642990283246 -0.05891164046496763
-0.6106042959894662 0.7913320584189864 0.03091871662242078
-0.6373996516345241 0.7630313270880358 0.1072607942281689
-0.6635627171339917 0.7279186485852208 0.1726816767107007
-0.6896255420448011 0.6868743983492158 0.2293908730787182
-0.7156944794563055 0.6402114308921348 0.2791249466293054
-0.7415804282139274 0.5879099134551506 0.3231414584221661
-0.7668736143598782 0.5297987517364935 0.3622404481239904
-0.790988579069728 0.4657097016062617 0.3968016401315129
-0.8132004645180991 0.3956141502742012 0.4268424166016879
-0.8326888731550244 0.3197385089166859 0.4521023406702842
-0.8486003665137676 0.2386417460906828 0.4721520252794525
-0.8601304739054666 0.1532412674913064 0.4865107211530027
-0.8666155908163834 0.06478375179588483 0.4947529517417955
-0.8676181386748563 -0.02523092752107178 0.4965905413303839
-0.8629883344380488 -0.1151623416539101 0.49192354049042
-0.8528894738977922 -0.2033643897340904 0.4808559766732939
-0.8377804977915848 -0.2883259416288713 0.4636722861072339
-0.8183585055611413 -0.3687943235257237 0.4407721671237179
-0.7954734669694236 -0.4438581337688874 0.4125674737965237
-0.7700332428079603 -0.512969221420231 0.3793565378982919
-0.7429142547648983 -0.5759002441477419 0.3411998224760481
-0.7148830583833976 -0.6326506336353873 0.2978177103483636
-0.6865225216490555 -0.6833203288295191 0.2485159058831829
-0.6581487888370027 -0.7279593056997082 0.1921338621835947
-0.6296997519501908 -0.7663854225514332 0.1270102613749326
-0.6005723102235589 -0.7979438565019153 0.05097550454470569
-0.569367749536525 -0.8211786302848061 -0.03854896822591247
-0.5334181025559627 -0.8334732179675816 -0.1441787876088568
-0.487780714928321 -0.8308402588634887 -0.2679075183634581
-0.424284630210906 -0.8075870482544523 -0.4096165427060472
-0.3445958300715625 -0.7542958143711376 -0.5588305094744491
0 0 0
0 0 0
0 0 0
0 0 0
-0.4014277206859789 0.7652626456991735 -0.5032185093598611
-0.4380931589027262 0.8264630139028677 -0.3536004394414945
-0.4770961556291713 0.8518538700604363 -0.2161579106739379
-0.5102634312985841 0.8544878120627617 -0.09737458454642514
-0.5388170374663056 0.8424172321863904 0.003067091693125647
-0.5649395364696432 0.820441004273719 0.08786283992562145
-0.5901711075875019 0.7912332267242416 0.1601500692990352
-0.6153896226444586 0.7560888055627912 0.2227674357803265
-0.6409887826921365 0.7154390873343206 0.2779933322529275
-0.6670116934320707 0.6692068978945347 0.3275019521090745
-0.6932317540956004 0.6170480515143623 0.3723995666429608
-0.7191992149071421 0.558528620705482 0.4132774723231133
-0.7442709636270258 0.4932737550297486 0.4502685146671366
-0.7676395050542009 0.4211056364803638 0.4831145135520238
-0.7883762362044293 0.3421682083527818 0.5112571049685125
-0.805499170762366 0.2570231315812381 0.5339571103874484
-0.8180670471787903 0.1666945903507883 0.5504354820212423
-0.8252896798787547 0.07264730691699053 0.56001724355892
-0.8266351226782737 -0.02330762319425558 0.5622553945101009
-0.8219099877446638 -0.1191680729556257 0.55701251550895
-0.8112933428790124 -0.2129336074347472 0.544483599959651
-0.795315058518007 -0.3027993260659391 0.5251538115909582
-0.7747839640580408 -0.387314183954675 0.4996974404037228
-0.7506837134811357 -0.4654736910285314 0.4688370775380791
-0.7240595649101216 -0.5367354359879042 0.4331891252294305
-0.6959150881214179 -0.6009639171509985 0.3931215593267386
-0.667126629700081 -0.6583262936714738 0.3486381376237989
-0.6383719149213118 -0.7091595736426531 0.2992891534129945
-0.6100606520137239 -0.7538183981907589 0.2440979791266372
-0.5822509271140627 -0.79249179191705 0.1814955030267057
-0.5545333353899624 -0.8249558954337524 0.1092728261297311
-0.5258678001738319 -0.8502101489486785 0.02461217920054637
-0.4943977688083728 -0.8659358584591502 -0.07566990968619497
-0.4575298505636745 -0.8676810061370412 -0.1944122100902944
-0.4137814103449175 -0.8475770460848542 -0.3322620884227435
-0.372050733823019 -0.7922352405623682 -0.4836750717918372
0 0 0
0 0 0
0 0 0
-0.2848040638787627 0.7547994299005579 -0.5909014010982997
-0.3642224577181917 0.8241796050553918 -0.4336703585725656
-0.4062775475889757 0.867881207886793 -0.2858684370860978
-0.438327850894901 0.8855356614088278 -0.1539327369440525
-0.4656093576369665 0.884047552945937 -0.0408393218747786
-0.4903343376307177 0.8698243390565955 0.05456974001222202
-0.5139938308126638 0.8470509705312375 0.1353329051214477
-0.5375767596805787 0.8179716776095804 0.204776859239263
-0.5616617052870185 0.7835055482943247 0.2658104298293939
-0.5865045299243166 0.7437507050954082 0.3206981837309635
-0.6120984354406812 0.6983307803623757 0.37103857822273
-0.638205704698465 0.64662932440989 0.4178085629849445
-0.6643717545415325 0.5879646166095333 0.4614193118873655
-0.6899334439533872 0.5217439301475035 0.5017719743756666
-0.7140354727783847 0.4476154758302998 0.538324929212239
-0.7356684665308605 0.3656170371435698 0.5701895206880684
-0.753739931271864 0.2763008445206405 0.5962666847338244
-0.7671802680418135 0.1808046316627308 0.6154219052784803
-0.7750736190822729 0.08083779277107146 0.6266786547047926
-0.7767896303990907 -0.02143265433002483 0.6293953538379619
-0.7720853453597133 -0.1235883590646244 0.623386025657044
-0.7611495945577378 -0.2232200984183426 0.6089532678019689
-0.7445772739647617 -0.3181869442747842 0.586823441580412
-0.7232811142311444 -0.4068168784879261 0.5580004096538761
-0.6983653733506028 -0.4880131954747528 0.5235732292119157
-0.6709917618311869 -0.5612586621680939 0.4845191117963878
-0.6422617904246999 -0.6265369865959911 0.4415327813284909
-0.6131268207327101 -0.6842022098879916 0.3948959833710486
-0.5843236896470528 -0.7348245238303406 0.344381684900297
-0.5563250041300464 -0.7790239085670939 0.2891785601675053
-0.5292887183550448 -0.8172821929614126 0.2278228910585101
-0.50299140183173 -0.8496997447826801 0.1581454817552462
-0.4767338221807463 -0.8756438030953261 0.07728384624027097
-0.4492285492144811 -0.8932333618599203 -0.01810723145808391
-0.4185263906222826 -0.8986818360945106 -0.1311739982865618
-0.381946386458252 -0.8858876103391865 -0.2632871051134265
-0.334257439774807 -0.8478284782730613 -0.4116537809669381
-0.2497051072758789 -0.783668462366252 -0.5687803622602097
0 0 0
0 0 0
-0.3142795826704224 0.7849964032844153 -0.5338623331412659
-0.3425553420984213 0.8613094382686101 -0.3752357780772567
-0.369850872969139 0.900387866413245 -0.229155016920358
-0.3939995777000997 0.9134488634494665 -0.101860230880458
-0.4160949528208892 0.9093004089725008 0.006144630129150829
-0.4372661791108656 0.8940597611413027 0.09723904624038966
-0.458374573305737 0.8713867777199168 0.1748651885358638
-0.4800087912187385 0.8430991194502816 0.2424364558701615
-0.5025231235095203 0.8097886716371905 0.3028412416206045
-0.5260705547828556 0.7712846067459741 0.3582873522567688
-0.55061637735141 0.7269665800061819 0.4102940366938386
-0.5759345710651755 0.6759798147964153 0.4597288981995536
-0.6015944283216292 0.617405073863975 0.5068482204559772
-0.6269479807488714 0.5504210463442094 0.5513373750946494
-0.6511307101285041 0.4744785142043027 0.5923672322858741
-0.6730904662622008 0.3894825787808758 0.6286911364518599
-0.6916570113283544 0.2959582596919985 0.6588014019417471
-0.7056568986517302 0.1951560091217547 0.6811479086724782
-0.7140629642639924 0.08905155034914443 0.6943946316374667
-0.7161510596440891 -0.01979072313543745 0.6976646666188734
-0.7116248432339597 -0.1284828479953748 0.6907114015732179
-0.7006725201562104 -0.2341559455685854 0.6739651420161327
-0.6839380428939607 -0.3342968752856056 0.6484399375860946
-0.6624166569580098 -0.426999782802351 0.6155285192997308
-0.6373063243625481 -0.5110853176224317 0.5767429644462739
-0.6098534178630264 -0.586086984149561 0.5334612035858433
-0.5812228694997624 -0.6521366700138115 0.4867214188771219
-0.5524066657730659 -0.7097958204722878 0.4370775318516788
-0.5241690449589974 -0.7598694952375887 0.3845063881317762
-0.497016324465209 -0.8032214571534123 0.3283444288905211
-0.471175255369242 -0.8405825527172333 0.2672355717248526
-0.4465636352518183 -0.8723214625256606 0.1990883866220557
-0.4227415457155407 -0.8981256676528721 0.121077952696259
-0.3988457612532419 -0.9165340629224185 0.02978876018309046
-0.373547613046147 -0.9242992920229202 -0.07831346980854506
-0.3451578940734615 -0.9156967101344118 -0.2058289659105038
-0.3123107283360953 -0.8820939965730953 -0.3526644158061332
-0.2782351103669133 -0.8117836346978984 -0.5134126544951728
0 0 0
0 0 0
-0.2963738468252619 0.8254241234185562 -0.4804555748419447
-0.3089458081140556 0.8946097726622362 -0.3228402736741102
-0.3263876776132028 0.9277934513641161 -0.1807495380578352
-0.3443340386493948 0.9370253709605726 -0.05845959291337521
-0.3621072012479211 0.931055375789499 0.04488053049899845
-0.3799982187085179 0.9154707158885476 0.1323431982720037
-0.3984223775131696 0.8934017791872338 0.2075882223100289
-0.4177132281047877 0.8662690056477369 0.2740322406585731
-0.4380887892189967 0.8343777107759157 0.3345026883613572
-0.4596468062440703 0.7973303012379421 0.3911383441155289
-0.4823526323997684 0.7542978827003608 0.4453881926710292
-0.5060149515212932 0.7042108427723704 0.498032085069557
-0.5302545590687719 0.6459204319234088 0.5491965934077326
-0.5544749134807319 0.5783697865408199 0.5983694179495309
-0.5778476689071584 0.5007930559255549 0.6444364876970473
-0.5993290024466599 0.4129387972833966 0.6857742314526211
-0.6177226132980141 0.3152847456824213 0.7204264724177216
-0.6317967409012014 0.2091879392952222 0.7463734214453498
-0.6404465862598658 0.09690334384336925 0.7618647597179288
-0.6428717599401604 -0.01857491431300815 0.7657485702433302
-0.6387227360098134 -0.1338469586333436 0.7577059179977026
-0.6281708040265584 -0.2455447616784581 0.7383151163161267
-0.6118789170912278 -0.3507599060470333 0.7089229006945269
-0.5908846307513108 -0.4473509727413053 0.6713661149695405
-0.5664334967563365 -0.5340739675428025 0.6276289436804826
-0.5398090281039289 -0.6105413464553773 0.5795217661537364
-0.5121947043346611 -0.6770614924561672 0.5284357295684653
-0.4845838007863503 -0.734421646416647 0.4751877368894484
-0.4577342718104027 -0.7836653156475211 0.4199381019403585
-0.4321546522698588 -0.8258870479199356 0.3621504391818552
-0.4081027351350391 -0.8620398932589624 0.3005651011101862
-0.3855801185903115 -0.8927245001389135 0.2331757684657815
-0.3643113851026012 -0.9179087845608279 0.157228107890056
-0.3437139911358676 -0.9365131287354953 0.06930982616848427
-0.3229160201227057 -0.9458049021425067 -0.03432682670033489
-0.3010301956002464 -0.9406049600054797 -0.1569813063710673
-0.2783253825156722 -0.9124443197626392 -0.2999672395119149
-0.260028543822918 -0.8490188457181075 -0.4599479927261606
0 0 0
0 0 0
-0.247731743993709 0.8660051860877799 -0.4343546945606833
-0.2599472720731992 0.9246560275673811 -0.2782780020501296
-0.2746466711058674 0.9511923816104704 -0.1407205003425795
-0.2893200946974941 0.9569510435779084 -0.02320739105079431
-0.3039338251862843 0.9496477839528114 0.07611383803978766
-0.318863847900373 0.9340820765412811 0.160675202774092
-0.3344585837422442 0.9128435069086699 0.2342097087138204
-0.3509752151185583 0.8869946817592793 0.3000947065565065
-0.3685856284549911 0.8565956899598801 0.3610934206525999
-0.3873788329247019 0.8210573160258252 0.4192881152648658
-0.4073462767224201 0.7793707750535827 0.4760779409222388
-0.4283521758163505 0.7302724736328197 0.5321809163504462
-0.4500944448113816 0.6723960358357992 0.5876211038945385
-0.4720652566464605 0.6044500883787267 0.6417121505209796
-0.4935238484640322 0.5254434472026421 0.6930681025621181
-0.5134991504064368 0.4349521101497602 0.7396859363325343
-0.5308402496744394 0.333389925489833 0.7791404153985736
-0.5443265892498665 0.2222096830379847 0.8089075478692018
-0.5528322407904946 0.10394716746639 0.8267838290135302
-0.5555147222014186 -0.01796002095282765 0.8313127155678866
-0.5519772665211271 -0.1395793063662632 0.8220941031768666
-0.5423516763355145 -0.2570274637906548 0.7998697031600835
-0.52727333831257 -0.3669975925743901 0.7663521343020578
-0.5077598910257569 -0.4671257436477596 0.7238600919287085
-0.4850362191454435 -0.5561270830429103 0.6748796438056766
-0.4603573993613576 -0.6337201505782587 0.6216669812723818
-0.434868719851754 -0.7004112441205419 0.5659622651767612
-0.409519318187956 -0.7572243504256407 0.5088272901027787
-0.3850253696564381 -0.8054393969168101 0.4505805617369746
-0.3618664711881325 -0.8463681300245772 0.3907859330996293
-0.3402952180190316 -0.8811620437138821 0.3282569379485434
-0.3203413983397553 -0.9106212724132625 0.2610560988335271
-0.3017971765919298 -0.9349526560893822 0.1864993165471339
-0.284180591363497 -0.9534129503287107 0.1012182673127528
-0.26670690901674 -0.9637766653832464 0.001401408393708933
-0.2483979200930427 -0.9616164448222499 -0.1165859611654259
-0.2287963286062897 -0.9394849332921098 -0.2549907844087747
-0.2110468626658657 -0.8859220957971973 -0.4130390561886321
0 0 0
-0.07962241632542666 0.8222522386362795 -0.563525977108533
-0.1667054333307675 0.9021366313322596 -0.3979432081421703
-0.1990856634067719 0.9490116354375882 -0.2444213870142278
-0.2168423861783919 0.9699532887502262 -0.1103177102693886
-0.230225543540373 0.9731302334684803 0.003707804083312317
-0.2423690112548717 0.9650034923617808 0.1001275292459648
-0.2544413179673982 0.94968175653771 0.1826586351927068
-0.266972973013914 0.9293230766678545 0.2551157597105754
-0.2802523186083727 0.9047108176776895 0.3208690921413235