# OOMMF: rectangular mesh v1.0
# Segment count: 1
# Begin: Segment
# Begin: Header
# Title: 
# Desc: time = 2.6199999999999996e-09
# Desc: stepsize = 8.905687819399864e-14
# Desc: step = 16766
# meshunit: m
# valueunit: (none)
# valuemultiplier: 384000.0000000001
# xmin: 0
# ymin: 0
# zmin: 0
# xmax: 9.357999999999999e-08
# ymax: 9.357999999999999e-08
# zmax: 2.3395e-08
# ValueRangeMaxMag: 1
# ValueRangeMinMag: 0
# meshtype: rectangular
# xbase: 1.16975e-09
# ybase: 1.16975e-09
# zbase: 1.16975e-09
# xstepsize: 2.3395e-09
# ystepsize: 2.3395e-09
# zstepsize: 2.3395e-09
# xnodes: 40
# ynodes: 40
# znodes: 10
# End: Header
# Begin: Data Text
0 0 0
0 0 0
0 0 0
0 0 0
0 0 0
0 0 0
0 0 0
0 0 0
0 0 0
0 0 0
0 0 0
0 0 0
0 0 0
0 0 0
0 0 0
0 0 0
-0.8358771882990997 0.02997461309378335 -0.5480974809749348
-0.8457262934926465 0.04863159304983583 -0.5313962783578978
-0.8562811328377443 0.02946154837948085 -0.5156691174708763
-0.8618403310879741 -0.005425417379597736 -0.5071506763836835
-0.8606048744382969 -0.04482821934270464 -0.5072964427665589
-0.8526479671560867 -0.08008889733523118 -0.516311158729132
-0.8399719282863296 -0.09990056517984684 -0.5333545132158267
-0.8287231248313339 -0.08157461565517073 -0.5536818260070488
0 0 0
0 0 0
0 0 0
0 0 0
0 0 0
0 0 0
0 0 0
0 0 0
0 0 0
0 0 0
0 0 0
0 0 0
0 0 0
0 0 0
0 0 0
0 0 0
0 0 0
0 0 0
0 0 0
0 0 0
0 0 0
0 0 0
0 0 0
0 0 0
0 0 0
0 0 0
0 0 0
0 0 0
-0.7799281862998628 0.2408134080627461 -0.5776858373824055
-0.8079826692776163 0.2705748448109688 -0.5234054446626798
-0.8451874698590903 0.2533727841944114 -0.4705957639235194
-0.8820683091301759 0.2051994418271771 -0.4240857072598023
-0.9144095130349115 0.1233424623853131 -0.3855410217395589
-0.9277714239786571 0.08268012345413615 -0.3638738545625709
-0.936151256666005 0.04369533395767579 -0.3488718137554055
-0.9400559313926834 0.00076316979048893 -0.341019447283149
-0.9389608821997062 -0.04401413880738179 -0.3411967427801638
-0.9328825626517697 -0.08724020067079159 -0.3494556791457057
-0.9223444144430785 -0.1267726076106996 -0.3649787488405832
-0.9066291831772684 -0.1680366059603529 -0.3870235435585845
-0.8706774481846447 -0.2496943494493044 -0.4237611509751258
-0.8302706478194439 -0.2991596608482402 -0.4702702932257639
-0.789966932797209 -0.3180807083114987 -0.5241916711347334
-0.7598161670321402 -0.2898664871484215 -0.58194227544046
0 0 0
0 0 0
0 0 0
0 0 0
0 0 0
0 0 0
0 0 0
0 0 0
0 0 0
0 0 0
0 0 0
0 0 0
0 0 0
0 0 0
0 0 0
0 0 0
0 0 0
0 0 0
0 0 0
0 0 0
0 0 0
0 0 0
-0.7525838255112055 0.3346486089434927 -0.5671224683532684
-0.7904992999195634 0.3631871816559966 -0.4931591304107162
-0.8460510664395677 0.3260887366025883 -0.4217389344575589
-0.8802941055617092 0.3050177267169069 -0.3633819947407414
-0.9106284856019885 0.2718834261634164 -0.311183488938392
-0.937631543047962 0.223130030660849 -0.2665709640954651
-0.9590671776549217 0.1620844949707402 -0.2322041456027485
-0.9715922991611802 0.1086747121284222 -0.2102337060380551
-0.9788204598834958 0.0580489202204604 -0.1963181860518781
-0.9818718658037791 0.007175311632562585 -0.1894100156960569
-0.9808766785013752 -0.04415311166884631 -0.1895559133925069
-0.9758186911206744 -0.0952207640085774 -0.196750827599672
-0.9665055073277459 -0.1462293134360624 -0.210912522618155
-0.9516607179470445 -0.2001658964217026 -0.2329710106992101
-0.9274340832122819 -0.2617950034361953 -0.2670756399824514
-0.8975434661746414 -0.3116091819964718 -0.3119542338592305
-0.8643886248110209 -0.3461153564619385 -0.3647416418761871
-0.8273794175577267 -0.3687255343894938 -0.4236564406344117
-0.7686080700001147 -0.4067339433487838 -0.4937703252106653
-0.7281567203072249 -0.3801477422765094 -0.5703292774472463
0 0 0
0 0 0
0 0 0
0 0 0
0 0 0
0 0 0
0 0 0
0 0 0
0 0 0
0 0 0
0 0 0
0 0 0
0 0 0
0 0 0
0 0 0
0 0 0
0 0 0
0 0 0
0 0 0
-0.7562203568499011 0.4152272199596325 -0.5056848106186326
-0.8076580350246378 0.4150693618600697 -0.4188149033943454
-0.847679921290322 0.4053543918887968 -0.3422375900126931
-0.8859897102916504 0.37420908656747 -0.2738426423836445
-0.915764984196527 0.3381329064100749 -0.2168885227996391
-0.9406142089605114 0.2947261652257119 -0.1684677934589786
-0.961534707606495 0.2428121341358617 -0.1284261405808017
-0.9779233187401172 0.1846127842665476 -0.09789842976099104
-0.9889491990895333 0.1265421102322812 -0.07724361435180965
-0.9955136855337635 0.06930247362473745 -0.06441792502460097
-0.9982270300546687 0.0122553647253041 -0.05824605139994059
-0.997287125019617 -0.04485433720044849 -0.0583650469409105
-0.9926734616857525 -0.1020050552213987 -0.06476393420804134
-0.9841371282533716 -0.1594497681165837 -0.07778100179847201
-0.9709991694376694 -0.2178182884315866 -0.09856878905662529
-0.9523135350612626 -0.2764191821106017 -0.1291950722761004
-0.9290106336029754 -0.328952340831555 -0.1694980829214241
-0.9017094070318673 -0.3732230211218898 -0.2182308909730407
-0.8693154454533865 -0.4104640409879435 -0.27533602625161
-0.8280403392493437 -0.443085435512423 -0.3435469304368728
-0.7849826222419718 -0.4547535903672061 -0.4207154083537378
-0.7307255962947684 -0.4558868305626927 -0.5081410243615027
0 0 0
0 0 0
0 0 0
0 0 0
0 0 0
0 0 0
0 0 0
0 0 0
0 0 0
0 0 0
0 0 0
0 0 0
0 0 0
0 0 0
0 0 0
0 0 0
-0.6507735645733659 0.5044391610470699 -0.5674811895160959
-0.7024048880723931 0.5401956401177821 -0.4634825170486457
-0.7828507279291074 0.5055946400901999 -0.3626552049715088
-0.832668252271124 0.4791929241121486 -0.2775567025683215
-0.8695346301091618 0.4494871052058753 -0.2046237261281421
-0.9005114873888511 0.4110280527173465 -0.1418978539658179
-0.926054190628737 0.3666217321447596 -0.08951056662835984
-0.9474442365160298 0.3166028846513982 -0.04595685066418264
-0.9652657197905808 0.2610542924025177 -0.01061822091462799
-0.9793937133790359 0.2012953096476908 0.01637536281926973
-0.9895374143204211 0.1399120991119729 0.03521803773829855
-0.9958360591536582 0.07810987685903852 0.04700415328858612
-0.9984827688334871 0.01617269555389321 0.05263652972160528
-0.9975671407729324 -0.04582599702802265 0.0525335858903921
-0.9930743273956026 -0.1078070107734526 0.04670148494280631
-0.984885328056292 -0.1696896424189876 0.03473205774447125
-0.972783586536061 -0.2311814394363323 0.01572373448589093
-0.9566277867654589 -0.2910884276851134 -0.01143699506109776
-0.9367336885509133 -0.3468760804616691 -0.04697852208562622
-0.9132009336507334 -0.3972861413552071 -0.09070709270238328
-0.8853532163845507 -0.4423331565659286 -0.1431469903279558
-0.8517744251525833 -0.4818014705774198 -0.2057854990163815
-0.811923290409666 -0.5129633810854614 -0.2786559530239974
-0.7585287204944483 -0.5409778506213141 -0.3632865884149835
-0.6736210643439943 -0.5768291865053179 -0.4620635792482208
-0.618212830981249 -0.543530285600515 -0.5677919726846899
0 0 0
0 0 0
0 0 0
0 0 0
0 0 0
0 0 0
0 0 0
0 0 0
0 0 0
0 0 0
0 0 0
0 0 0
0 0 0
-0.6292517265341824 0.5502565703100923 -0.5488715437006406
-0.6926370920527359 0.5742329066976296 -0.4364750022376086
-0.7441798675402641 0.5799435441464745 -0.3314540848301324
-0.796172200985157 0.5575107361688229 -0.2351416709878268
-0.83694673152895 0.5251932718313482 -0.1539226942529615
-0.8694184913406469 0.4865470161359812 -0.08592722504611637
-0.8966611254373549 0.4417745066213524 -0.02888098732516303
-0.9198469492397267 0.3918408708314414 0.01850194369315563
-0.9396621293451277 0.3372328046306242 0.05752493507639012
-0.9563613636014006 0.2783131834541779 0.08896467909271678
-0.9698354492234473 0.2159208251790787 0.1131255881025127
-0.9798430675247894 0.1513820797853075 0.1303496411329362
-0.9862509043975396 0.0857138481358343 0.1412879676857927
-0.9890115198836391 0.01950515227948445 0.1465461107365448
-0.9881063328284161 -0.04687458868952639 0.1464535692960957
-0.9835255383085812 -0.1131053479964609 0.1410131048853764
-0.9752716925998838 -0.1788048162435169 0.1298998202519116
-0.9633866705837761 -0.2433673068440967 0.1125098969022603
-0.9480113919793473 -0.3057724452494406 0.08819077278013637
-0.9293963740092739 -0.364716596403938 0.05660551462481527
-0.9076290413498931 -0.4194088145132447 0.01748626909514877
-0.8823895046320218 -0.4695685827587683 -0.0299016421150434
-0.8528853188519615 -0.5148230996559205 -0.0868551031745269
-0.8178028851198818 -0.5543202024857018 -0.1546853393370153
-0.7738593864472604 -0.5879139945305186 -0.2355818011702905
-0.717985163674955 -0.6121129858256958 -0.3313834596448632
-0.6622972230154806 -0.6088488578037893 -0.4366525583767987
-0.5951857247227733 -0.586745814647872 -0.5490749512402031
0 0 0
0 0 0
0 0 0
0 0 0
0 0 0
0 0 0
0 0 0
0 0 0
0 0 0
0 0 0
0 0 0
-0.5864560928590593 0.595199017104921 -0.5493699856980011
-0.6552536241467098 0.6232393103139779 -0.4268670169056854
-0.7086922153856737 0.6318605935247862 -0.3138590992822255
-0.7527354193062493 0.6230719090960943 -0.2125341963477703
-0.7923163039014368 0.597497351847549 -0.123417134576732
-0.8262111880329966 0.5612922205966261 -0.04822982341676134
-0.8552481850602942 0.5180190546552417 0.01438057596765688
-0.8806137927032894 0.469149666699174 0.06646757357374376
-0.9029593688841185 0.4154998593300694 0.1096551186269302
-0.9225491843789547 0.3575203003825874 0.1451972355662099
-0.9393579940972051 0.295585627864651 0.173884143973896
-0.9531501361371156 0.2302948790774718 0.1961353783805718
-0.9636027256704784 0.162511135768023 0.2122732150597697
-0.9704342848031841 0.09309513180597188 0.2226894593656396
-0.9734535920255272 0.02276658043317087 0.2277493951429458
-0.972562055386559 -0.04786777544973758 0.227665817583063
-0.9677505828935165 -0.1182327083718081 0.2224406347327875
-0.9591040109570221 -0.187703487832629 0.2118652798870492
-0.9468110179936867 -0.2555336455662177 0.1955797847155895
-0.9311619499733796 -0.3208415080138527 0.1731997391948652
-0.9124902065227003 -0.3827607457502208 0.1444154926345989
-0.8910268098508161 -0.4407124919056799 0.1088288730317609
-0.8667660707535427 -0.4943725270903073 0.06566873722561811
-0.8393787098363935 -0.543374771617617 0.01368353181357647
-0.8081039313236185 -0.5870182289985757 -0.04876099878680987
-0.7715891712302663 -0.6239741809364332 -0.1237189248453818
-0.7288271123465596 -0.6508600313500448 -0.2125847122904029
-0.6809841010548706 -0.6616629278214911 -0.3137878647385546
-0.623171496670529 -0.6555204886288324 -0.4265561800340363
-0.5501952939632401 -0.6295489618272124 -0.5485920553225155
0 0 0
0 0 0
0 0 0
0 0 0
0 0 0
0 0 0
0 0 0
0 0 0
0 0 0
-0.5432530726656395 0.6181743588370424 -0.5680990768481782
-0.6085924321628924 0.6623168781939796 -0.4369800960838326
-0.661424327313662 0.6810608623432374 -0.3141241172243149
-0.7047750414254612 0.6792809065844914 -0.2046206024169862
-0.741699380812451 0.661760372470405 -0.1093400106560124
-0.7747232365842829 0.6317001991035827 -0.02754569202010998
-0.804510816798034 0.5924928690971211 0.04140707335735031
-0.831551521673961 0.5465418565321303 0.09906596721443638
-0.8562431710646818 0.4951441198522286 0.147241069613268
-0.8787349705816467 0.4389639368076391 0.1874446949348286
-0.8989403998747619 0.378368512675705 0.2207791341784309
-0.9165881031184099 0.3136842628546646 0.2479282808779991
-0.9312808628261761 0.2453933353233942 0.2692546480798291
-0.9425754579657837 0.1741887314079421 0.2849733178581536
-0.9500707443184765 0.1008806728840514 0.2952772775351951
-0.9534696002110008 0.02630059650360211 0.3003398077129111
-0.952609944188393 -0.0487308988218079 0.3002658717427023
-0.9474783234111114 -0.1233922305898889 0.2950579334573471
-0.9382150276331164 -0.1968396222092531 0.2846168038818306
-0.9251084340671629 -0.2682038243352576 0.2687770336724168
-0.9085658093448393 -0.3366352690891162 0.2473557472444387
-0.8890458290531074 -0.4014119070816973 0.2201499368528352
-0.8669602173762616 -0.4620411874414572 0.186809856791853
-0.8425831051247779 -0.518212784953005 0.1466602211560362
-0.8159795654140805 -0.5696101314429176 0.09859841268615666
-0.7869377771953254 -0.6156617442517113 0.04110415414310423
-0.7549372612568003 -0.6552141149424391 -0.02764407976904166
-0.7193030351230921 -0.686057474609163 -0.1092166891807503
-0.6791494045478047 -0.7049994646242462 -0.2042837271587916
-0.6317391077557545 -0.7089401012117815 -0.3135436694079337
-0.5741203281387842 -0.6929123820128882 -0.4361860608399122
-0.5043314951041648 -0.6510795053088427 -0.5672258992789293
0 0 0
0 0 0
0 0 0
0 0 0
0 0 0
0 0 0
0 0 0
0 0 0
-0.5765923206626271 0.6735884435217363 -0.4624066440989469
-0.6118880106875445 0.7180137035309486 -0.3317369197400401
-0.6506467981499312 0.7289132643904412 -0.2129417691598164
-0.6858529351853777 0.719443980525897 -0.1095723969923726
-0.7175581137585846 0.6961772193525861 -0.0211573304961316
-0.7468977186155034 0.6627434468283226 0.05399001401250213
-0.7745258086459351 0.6215216833727779 0.1175609154388809
-0.800719614278109 0.5740278741277557 0.1712895181693408
-0.8255095863114659 0.5210964480615939 0.2167773390496864
-0.8487206940161214 0.4631417333054882 0.2552898713611269
-0.8700071648843456 0.4003994860567346 0.2876939078524344
-0.8888924074822752 0.3331253660290144 0.3144801717571384
-0.9048173557443623 0.2617406193576087 0.3358532431316911
-0.9172048456712004 0.1868915798404942 0.3518619167542756
-0.925534894633672 0.109419152626742 0.3625087693475601
-0.929412462603709 0.03029284091781613 0.3677972514117477
-0.9286153152530501 -0.04944579185686587 0.3677345645232785
-0.9231206102793635 -0.1287227530546327 0.3623241528293287
-0.913111349464642 -0.2064672813660555 0.3515663880466534
-0.898960437458437 -0.281659570879676 0.3354668657504218
-0.8811876512454052 -0.3533999729752112 0.3140330912399607
-0.8603898421526975 -0.4209875725422004 0.2872260142909777
-0.8371581340425762 -0.483961141666187 0.2548487236842911
-0.8120023025485148 -0.5420491124404391 0.2164140022236131
-0.7852870235111724 -0.5950337239346727 0.1710530855769584
-0.7571711554571467 -0.6425628952023876 0.1174936894169811
-0.7275481020891778 -0.6839183919628891 0.05412386055457363
-0.6959828971826266 -0.7177568750341187 -0.02080565236980602
-0.6615761525513554 -0.7419126627927047 -0.1090073170167201
-0.622898822045838 -0.752966955430046 -0.2122211618201962
-0.5797812417167573 -0.7444351580818291 -0.3311646224539335
-0.5400410414811763 -0.7026920349699001 -0.4632273496953588
0 0 0
0 0 0
0 0 0
0 0 0
0 0 0
0 0 0
0 0 0
-0.455644231273359 0.7306430427097533 -0.5084772154651007
-0.5407634716783187 0.7585074486785008 -0.3636499938094911
-0.5877140869083869 0.7738976652440156 -0.2359545629550358
-0.6237826770962541 0.7716838078198689 -0.1240938052573836
-0.6550267423543166 0.7550860615498881 -0.028017966624465
-0.6837321096443748 0.7277507303526063 0.053751992637482
-0.7111180568200824 0.6921676721933743 0.1233491906533427
-0.7377626461557558 0.6498361323962669 0.1828094061297658
-0.7638093594916927 0.6015763256103458 0.2338828484905309
-0.7891083008495114 0.5477621989970212 0.2779652188320397
-0.8132985310108815 0.4885251083603928 0.3160517646794715
-0.8358587891986083 0.4239353803390087 0.348738982358233
-0.8561494142985173 0.3541580525833855 0.376271516576327
-0.8734605186558192 0.2795718973394573 0.3986305013010453
-0.8870755823897815 0.2008310574925979 0.4156486466647452
-0.8963485531478613 0.1188608274112824 0.4271198601994997
-0.9007813892075387 0.03480581780306489 0.4328757834580214
-0.9000871297099527 -0.05004446504740767 0.4328264206915016
-0.8942284924622892 -0.1343384354640948 0.4269760977217342
-0.8834265899677574 -0.2167500277214387 0.4154237422448247
-0.8681372450880006 -0.29606982943626 0.3983470594702561
-0.848996343273459 -0.3712929370199448 0.3759611203667177
-0.8267426969459793 -0.4416851200301253 0.3484404795520483
-0.8021341118036788 -0.5067997334397021 0.3158083229846379
-0.7758711532706092 -0.5664270767331928 0.2778206620574208
-0.7485311389793977 -0.6204854860891936 0.2338779500740969
-0.7205031360041929 -0.6688751748038051 0.1829787734664922
-0.6919096603711081 -0.7113049269298531 0.1237187245749544
-0.6624955276751692 -0.7470925282401341 0.05433626834962865
-0.6314640957181616 -0.7749272068043392 -0.02721984521022061
-0.5972741566014445 -0.7925323199608502 -0.1231101282328371
-0.5573006103156435 -0.796404260528251 -0.2348537492872111
-0.5053964789007609 -0.7831024297808907 -0.3623878910587072
-0.4150390100858207 -0.7564908417071656 -0.5054346906576214
0 0 0
0 0 0
0 0 0
0 0 0
0 0 0
-0.3799196868529376 0.728014930026134 -0.5706621532926539
-0.4545473894927031 0.7849059873501278 -0.4210810631307103
-0.5127760465251445 0.8119100310088867 -0.2790391149233221
-0.5541438832842938 0.8178485407879225 -0.1550752106226783
-0.586846716019959 0.8082047514187585 -0.04915294173019264
-0.6154905116152003 0.7870921322381149 0.04071124513591363
-0.6423889184992726 0.7573798364848091 0.1170993624046596
-0.668696914751727 0.7207691041663448 0.1825824051784993
-0.6949061350019875 0.6780986434505722 0.2393484766759387
-0.7210792232922145 0.6296579552059712 0.2890944710334865
-0.7469798269864641 0.5754257566701584 0.3330260299673997
-0.7721488952225021 0.5152549963657209 0.3718848912322597
-0.7959534629735384 0.4490296794632549 0.4059931424809512
-0.8176286844623322 0.3768026220837712 0.4353195588704806
-0.8363290593948108 0.2989075396159931 0.4595737015675547
-0.8511982313581895 0.2160279785575049 0.4783236178708379
-0.8614563941424089 0.1292083986048632 0.4911192021506841
-0.8664933498487688 0.03980677760162695 0.497598929987629
-0.8659494328449078 -0.0506000257532309 0.497565289333324
-0.8597675963580479 -0.1403423184472102 0.4910231297052777
-0.8482054778996021 -0.2277977236382119 0.478179531521745
-0.8318042188689811 -0.3115265976535048 0.4594049634322586
-0.8113200365712115 -0.3903821414332667 0.4351569623803164
-0.787633131804471 -0.463574845966545 0.4058724083637298
-0.7616525389234757 -0.5306766967198751 0.3718435874260899
-0.7342311480870486 -0.5915645923511772 0.3331005167440595
-0.7060938826109481 -0.6463179576171298 0.2893173458350149
-0.6777707982269832 -0.6950886780711917 0.2397466885861006
-0.6495197235671692 -0.7379503311200056 0.1831759741262525
-0.6212186248613017 -0.7747172887535273 0.1179005624745545
-0.5922045954999746 -0.8047066658023063 0.04172408275859107
-0.5610195121013294 -0.8264137090541924 -0.04793212418491523
-0.5249360456670769 -0.8371595869935704 -0.1536423569988637
-0.4789499278199356 -0.8328957894903696 -0.2772932932663385
-0.4148377681928802 -0.8079043691716757 -0.418569177501242
-0.3344227467145184 -0.7528531538226815 -0.566898187736703
0 0 0
0 0 0
0 0 0
0 0 0
-0.4065512699137038 0.7684699963399478 -0.4941355377392264
-0.4429149582981061 0.8279701857297318 -0.3439356208049109
-0.4816424840748006 0.8517674463628452 -0.2061861655174093
-0.5146705363215982 0.8529359572642805 -0.08726105573566702
-0.5432234445669831 0.8394832241125679 0.01327424974714178
-0.5694559159775918 0.8161370392445612 0.0981849934116341
-0.5948738098144263 0.7854993839803142 0.1706337251642132
-0.6203184585246071 0.7488027567739148 0.2334511543373466
-0.6461439096712571 0.7064309734404006 0.2888828962725035
-0.6723488822374377 0.6582781151441337 0.3385511832446522
-0.6986568202720319 0.6039947815055184 0.3834956993259168
-0.7245637295449106 0.5431707211676718 0.4242322117592678
-0.7493717218117771 0.4754890576374523 0.4608168601688736
-0.7722247640397631 0.4008670433110864 0.4929244641836709
-0.792160930943696 0.3195787639677405 0.5199523758069268
-0.8081899882045434 0.2323410065525638 0.5411530279321008
-0.8193953028851012 0.1403398237345517 0.5557841950649437
-0.825047082902834 0.04518356875358857 0.5632546103745738
-0.8247050013230296 -0.05121673570257923 0.5632392979691253
-0.818286484973611 -0.1468223501763268 0.5557431295105966
-0.8060834344165869 -0.2396662183703777 0.5411003608677433
-0.7887228505951784 -0.3280391897012475 0.5199101412447771
-0.7670814254713393 -0.4106283811548195 0.4929202970937894
-0.7421749942954233 -0.4865848674607092 0.4608811610391901
-0.715046385881638 -0.5555153453906722 0.4243952957716295
-0.6866686000586161 -0.6174098789846262 0.383785454421776
-0.6578682380220058 -0.6725281806966195 0.3389914859855869
-0.6292627357286261 -0.7212643946774839 0.2894928019724272
-0.6011977139213238 -0.7639965241709424 0.2342447861329937
-0.5736674117324151 -0.8009069780397102 0.1716208415185351
-0.5462004927603539 -0.8317392654613485 0.09937210875372658
-0.5176969996324793 -0.8554383209406865 0.01466613915476655
-0.4862435770981607 -0.8696146992135738 -0.08565896708734018
-0.4492004517535406 -0.86974205781813 -0.2043714926468433
-0.405081144792191 -0.8479050258548672 -0.3420034111875266
-0.3629214357108341 -0.790750307343696 -0.4929523130460353
0 0 0
0 0 0
0 0 0
-0.2896942619281185 0.7596157876728205 -0.5822895239690669
-0.368574628615384 0.8272485067437271 -0.4240432185889837
-0.4103256023022719 0.86925198481812 -0.2757424286993857
-0.4422023857854706 0.8853512107327633 -0.1435628213001791
-0.469440677411838 0.8824431821045688 -0.03032294095691309
-0.4942430455508513 0.8668721560522227 0.06524168135471053
-0.5180781379448793 0.8427415479277309 0.1462249170967042
-0.5419067813598516 0.8122161766195206 0.2159674113234985
-0.5662757540549442 0.77614622164029 0.2773604387849957
-0.5914043571546171 0.7345752774896784 0.3326259882202462
-0.6172424470661663 0.6870910154997117 0.3832984450259939
-0.6435010630807814 0.6330655207335238 0.4302725046668632
-0.6696672164789462 0.5718381686371321 0.4738638286080405
-0.6950160969174918 0.5028781571779527 0.5138737043855048
-0.7186348374462467 0.4259425894880139 0.5496697925744614
-0.7394714582140739 0.3412245058164449 0.5802997493684395
-0.7564181832433725 0.2494671714354329 0.6046467253155343
-0.7684283060570565 0.1520119330747618 0.6216191041571648
-0.7746519200652306 0.05075171649056706 0.6303480514862499
-0.774563311325617 -0.05201859359507716 0.6303536647539102
-0.7680482700563342 -0.1538353126270519 0.6216402106141533
-0.7554269941042017 -0.2523359267211224 0.6046954908584008
-0.7374061098715381 -0.3455061681464097 0.5803944494022227
-0.7149739607585202 -0.4318526582949057 0.5498322625682283
-0.689267400391691 -0.510474557340424 0.5141266157916528
-0.661440330965361 -0.5810371046172126 0.4742283960608846
-0.6325552085407832 -0.6436720560237256 0.4307669816061992
-0.6035046330529483 -0.6988377251875337 0.383937484153786
-0.5749576165183813 -0.747164197780034 0.3334207563473213
-0.5473175738043697 -0.7892919541319675 0.2783193930494927
-0.5206762974003367 -0.8256905006761918 0.2170976518034574
-0.4947487041251312 -0.8564213222283263 0.147533855772795
-0.4687784238055576 -0.880790997904184 0.06673835018434074
-0.4414259328362956 -0.8968408910041941 -0.02862799403395982
-0.4106995542707093 -0.9006987500730214 -0.1416602899147701
-0.3738967863342536 -0.8861901355692537 -0.2736206073903506
-0.3257872474793703 -0.8462691438020645 -0.4215343469141455
-0.2405162695456795 -0.7801621724203965 -0.577493643954734
0 0 0
0 0 0
-0.317957532490165 0.7897693041162397 -0.524564060729017
-0.3460015052372827 0.8642635605350094 -0.3651458014340055
-0.3731169025791389 0.9016514487368228 -0.2186514166442497
-0.397184261291252 0.9132025338149377 -0.09113613342960876
-0.4193072518962869 0.9076842584953797 0.01705037791005919
-0.4406075966773189 0.891132910496211 0.1083839544433974
-0.4619299387364115 0.8671180330055843 0.1863519480324815
-0.4838413383990495 0.8373718475358073 0.2543736389854196
-0.5066701581706506 0.8024108376454367 0.3153128580449518
-0.5305373466072182 0.7620017863132923 0.3713265429649803
-0.555367742981937 0.7154793503466664 0.4238584307084861
-0.5808846704022675 0.6619688881031719 0.4736773066921177
-0.6065968834316982 0.6005670919933298 0.5209216726395873
-0.6317894366619549 0.5305167273592338 0.5651496347998619
-0.6555322883001052 0.4513906115164095 0.6054122024132557
-0.6767213500625487 0.3632763186222156 0.6403737429796847
-0.6941630547592597 0.2669303827650649 0.668495193822804
-0.7067030646361111 0.1638558724374962 0.6882746773648403
-0.7133832944465774 0.05625916923196662 0.698512119495343
-0.7135947301250627 -0.05313406462383183 0.6985408594450928
-0.7071854814207192 -0.1613812783512322 0.6883638411955314
-0.6944915835639465 -0.2656776193214632 0.6686530063871102
-0.6762813143009876 -0.3636753746553641 0.6406120556129182
-0.6536313166194045 -0.4536959110800153 0.6057442712924803
-0.6277708083074915 -0.5348027620342748 0.5655880284778567
-0.5999318003139666 -0.6067484867575448 0.5214768535510197
-0.5712312381779432 -0.6698359671222257 0.4743570908915833
-0.5425937713098927 -0.7247405826267724 0.4246682084045302
-0.5147093290506614 -0.7723272033509339 0.3722700599730554
-0.4880115098507977 -0.8134740272275729 0.3163933837476658
-0.4626603267791599 -0.8488913047234987 0.2555953340525537
-0.4385140725474941 -0.8789005897286186 0.1877209672692341
-0.4150800303499476 -0.9031216592010447 0.109908312181736
-0.3914486277406162 -0.9200091851473803 0.01873689100254204
-0.3662535789149091 -0.9262210662364548 -0.08929083039049771
-0.3377841250237663 -0.9159422350169458 -0.216683425748463
-0.3046820460288845 -0.8804878319571741 -0.3631942023257078
-0.2702440041866291 -0.8081988649128242 -0.5232425565211596
0 0 0
0 0 0
-0.2990760057004552 0.8300792524718361 -0.4706612130078898
-0.311530487951508 0.8974253571071806 -0.3123723475241426
-0.3288781797883897 0.9289579629260608 -0.1699301208595412
-0.3468039808666886 0.9367381862163008 -0.04741908201570112
-0.3646435351467388 0.9294523077605358 0.05615603150421568
-0.382683837962471 0.9125954928044923 0.1439532794876122
-0.4013286980312859 0.8892021635332594 0.2196697259621422
-0.4208961914806559 0.8606024518132188 0.2867225417196125
-0.4415844507289431 0.8270199734541114 0.3479096669860983
-0.4634647732948911 0.7879861775243108 0.4053124571800625
-0.4864666303312803 0.7426169697035848 0.4602936604846885
-0.5103511718272092 0.6898125096313723 0.5135176559483243
-0.534679453393629 0.6284327504212721 0.5649691675805366
-0.5587859156751406 0.5574848691661046 0.6139779483775822
-0.5817714604163875 0.4763373922367377 0.6592758577424837
-0.6025327851834655 0.3849494247318339 0.6991195771666572
-0.6198421755982899 0.284074583765915 0.7315034574134288
-0.6324813054766186 0.175377202104797 0.7544602277154741
-0.6394138043239032 0.06139669071551522 0.7664074850947218
-0.6399600555803975 -0.05467406029157244 0.7664606150303925
-0.6339253488125121 -0.1693711114290039 0.7546204865667497
-0.6216402281714122 -0.2794127747688185 0.7317731397195331
-0.603900304511271 -0.3821021852888638 0.699501495501381
-0.5818272796498297 -0.4755814636498979 0.6597721486148828
-0.5566950651606465 -0.5589014159128068 0.6145891405780309
-0.5297661626418397 -0.6319321031990018 0.5656939365648399
-0.5021683558085461 -0.6951745488020586 0.5143532726856074
-0.4748210506714306 -0.7495368591119241 0.4612368878048562
-0.4484039029631857 -0.7961187047838458 0.4063606128805705
-0.4233515903782564 -0.8360199715192251 0.3490616537879724
-0.3998566941183537 -0.870162282486192 0.2879795588356254
-0.377864940968013 -0.8990893157498632 0.2210350395111196
-0.357053339253023 -0.9226933903319203 0.1454297781269419
-0.3367989672356814 -0.9398045722797609 0.05773925519985218
-0.3161977383998812 -0.9475891831663891 -0.0457572964329768
-0.2943441970946241 -0.94076707842406 -0.1682818997699358
-0.2715177032482361 -0.9107956067873664 -0.3110136644580672
-0.2530141205769611 -0.8453758359248729 -0.4704503702017769
0 0 0
0 0 0
-0.2496428137596965 0.8704945691933718 -0.4241670314192123
-0.2617482807765355 0.9273235513190473 -0.2675048946833636
-0.2763762769201159 0.9522660002911529 -0.1296364850081356
-0.2910470825764523 0.9566348753851411 -0.01188742699622748
-0.3057302478276068 0.9480678338360657 0.08772911722261457
-0.3207962451910656 0.9312663427325155 0.1727216488021059
-0.3365850423086544 0.9087206488958192 0.2468547985444927
-0.3533432814440357 0.8813991061696076 0.3135030160967789
-0.3712288108577778 0.8492739717042802 0.3753969778444641
-0.3903103791649551 0.8116764257803275 0.4345563113666407
-0.4105498930108501 0.7675316145187 0.492284476764296
-0.4317699094777064 0.7155344287381488 0.5491677581213081
-0.4536133874936444 0.6543183186137248 0.6050639905109612
-0.4755060506005523 0.5826543831382912 0.6590962491563744
-0.4966359889633532 0.4996967005335396 0.7096871859786434
-0.5159688168640149 0.4052600182861136 0.7546790692756006
-0.5323157681625291 0.3000799311847386 0.7915756172758851
-0.5444624175802721 0.1859747883290082 0.8179083407990319
-0.551345714870646 0.06582215914759337 0.8316762267005859
-0.5522418833519902 -0.05670167042163377 0.8317534627780292
-0.5469103666303261 -0.1775921034004437 0.8181381886222449
-0.5356449544588262 -0.2930790628926767 0.7919527420602519
-0.5192152398707269 -0.4001197564571416 0.7551951503940292
-0.4987218026297447 -0.4966949141392695 0.7103314197259762
-0.4754140607711166 -0.5818689188403712 0.65985606923681
-0.4505210522720148 -0.6556555853349597 0.605926179397117
-0.4251279177219353 -0.7187728821683167 0.5501198028001372
-0.4001074055036252 -0.7723687896123466 0.4933158388840923
-0.3760972813859416 -0.8177724260938641 0.4356593784766476
-0.3535054492990978 -0.8562889532020913 0.3765675582679807
-0.3325231639662174 -0.8890258572513382 0.3147401635705533
-0.3131293729025342 -0.9167152810374556 0.2481594030821391
-0.2950742122277489 -0.939480143907238 0.1740927008297828
-0.2778406369411777 -0.95648095532383 0.08915583305052523
-0.2606152070015427 -0.9653862982252787 -0.0104407412780734
-0.2424002183615723 -0.9616607430386214 -0.1282604749588429
-0.22273785214323 -0.9377682829111965 -0.2664178987763515
-0.2048173559306178 -0.8822220016993727 -0.4239506933915096
0 0 0
-0.08152407346411283 0.8284745287496169 -0.5540611705027859
-0.1680098018466344 0.9064554807821038 -0.3874418251086725
-0.2001492142306832 0.9515569444744942 -0.2334088118842208
-0.2178066614270183 0.9709561210188582 -0.09901752013673121
-0.2311721289787187 0.9727931011836066 0.01526528981143054
-0.2433583807763726 0.9634439105889693 0.1120380723456783
-0.2555235603186079 0.9469151492402221 0.1950882114877004
-0.268191292263897 0.9252626186084133 0.2682583034310811
-0.2816435411498685 0.8991716446511877 0.3349138235185875