# OOMMF: rectangular mesh v1.0
# Segment count: 1
# Begin: Segment
# Begin: Header
# Title: 
# Desc: time = 2.0999999999999998e-09
# Desc: stepsize = 8.847060038811479e-14
# Desc: step = 13438
# meshunit: m
# valueunit: (none)
# valuemultiplier: 384000.0000000001
# xmin: 0
# ymin: 0
# zmin: 0
# xmax: 9.357999999999999e-08
# ymax: 9.357999999999999e-08
# zmax: 2.3395e-08
# ValueRangeMaxMag: 1
# ValueRangeMinMag: 0
# meshtype: rectangular
# xbase: 1.16975e-09
# ybase: 1.16975e-09
# zbase: 1.16975e-09
# xstepsize: 2.3395e-09
# ystepsize: 2.3395e-09
# zstepsize: 2.3395e-09
# xnodes: 40
# ynodes: 40
# znodes: 10
# End: Header
# Begin: Data Text
0 0 0
0 0 0
0 0 0
0 0 0
0 0 0
0 0 0
0 0 0
0 0 0
0 0 0
0 0 0
0 0 0
0 0 0
0 0 0
0 0 0
0 0 0
0 0 0
-0.8352857820420707 0.02913034276044087 -0.5490437919228527
-0.8451128895858157 0.04791969551779748 -0.5324358239613425
-0.8556427471927082 0.02886492554617438 -0.51676136199384
-0.861175607819179 -0.005913134231466329 -0.5082731621292111
-0.8599134093750391 -0.04520703807600075 -0.508434117743283
-0.8519307271570653 -0.08035337675387631 -0.5174527717288631
-0.8392325597372715 -0.1000378141548377 -0.5344914839508189
-0.8279714480802934 -0.08155574149141664 -0.5548080228273621
0 0 0
0 0 0
0 0 0
0 0 0
0 0 0
0 0 0
0 0 0
0 0 0
0 0 0
0 0 0
0 0 0
0 0 0
0 0 0
0 0 0
0 0 0
0 0 0
0 0 0
0 0 0
0 0 0
0 0 0
0 0 0
0 0 0
0 0 0
0 0 0
0 0 0
0 0 0
0 0 0
0 0 0
-0.7796450239177312 0.2397158553052927 -0.5785239367524666
-0.8076844872608475 0.2695896022169069 -0.5243731642777986
-0.8448724433159676 0.2524787288433418 -0.4716408018894854
-0.8817336632698491 0.2043777985929008 -0.4251769778563407
-0.9140439096651809 0.1225719800587836 -0.3866520928541048
-0.9273787848668329 0.08199919843871653 -0.3650270138418853
-0.9357337007197848 0.0431123026809733 -0.3500625239793596
-0.9396134724845692 0.0002805027724294169 -0.3422374083055268
-0.938493308849245 -0.0443939160834113 -0.3424317296337683
-0.9323904610933441 -0.08751318479856084 -0.3506985465446833
-0.921829572999967 -0.1269342877633961 -0.3662211421159312
-0.906092653621185 -0.1680876901083891 -0.3882558840349294
-0.8701010255535992 -0.2496701530232032 -0.4249576685035161
-0.8296585446599132 -0.299037854712962 -0.4714266228390837
-0.7893276480101131 -0.3178389262786364 -0.5253001818283199
-0.7591627100334495 -0.2894757973950881 -0.5829886297494541
0 0 0
0 0 0
0 0 0
0 0 0
0 0 0
0 0 0
0 0 0
0 0 0
0 0 0
0 0 0
0 0 0
0 0 0
0 0 0
0 0 0
0 0 0
0 0 0
0 0 0
0 0 0
0 0 0
0 0 0
0 0 0
0 0 0
-0.7525304516173833 0.3334747292087238 -0.5678842526146545
-0.7904346644972419 0.3621078798930977 -0.4940555884518038
-0.8459661523237426 0.3250649541254227 -0.4226985269929366
-0.8801951054021931 0.3040687287830089 -0.3644156755716008
-0.9105147858718259 0.2710082725898647 -0.3122776663430158
-0.9374987112036764 0.2223221721286375 -0.2677106988363544
-0.9589075106023865 0.1613399857107384 -0.2333790802989671
-0.971403981434377 0.1080073776324685 -0.211444345468015
-0.9786046337128265 0.05746874053838025 -0.1975609139903852
-0.9816298323238136 0.006688564031629271 -0.190678093663419
-0.980609772871207 -0.04454196372156341 -0.1908415227808301
-0.9755285473993958 -0.09550834495752702 -0.1980459776221127
-0.9661936918841663 -0.1464140094901105 -0.2122090657542084
-0.9513265552685464 -0.2002502194288029 -0.2342597593689469
-0.9270697498210067 -0.2617877859836421 -0.2683446181248995
-0.8971473625542931 -0.3115039704018782 -0.3131962424515037
-0.8639635636157456 -0.3459019375127265 -0.3659491909668918
-0.8269291602827735 -0.3683971784304159 -0.4248195885296895
-0.768126098731738 -0.4063051483966045 -0.4948721277598616
-0.7276574047367844 -0.3795783466592804 -0.5713448871558525
0 0 0
0 0 0
0 0 0
0 0 0
0 0 0
0 0 0
0 0 0
0 0 0
0 0 0
0 0 0
0 0 0
0 0 0
0 0 0
0 0 0
0 0 0
0 0 0
0 0 0
0 0 0
0 0 0
-0.7563549856401141 0.4140657412193696 -0.5064352847559066
-0.8077811364184737 0.4139695250305787 -0.4196651855854087
-0.8477963553029002 0.4043173162304785 -0.3431746606777678
-0.8860942017126729 0.3732251908794195 -0.2748454521803134
-0.9158546666364065 0.3372053174018978 -0.217951378789402
-0.9406856283748073 0.2938569533381811 -0.1695837242894941
-0.9615830087448385 0.242002191330239 -0.1295880267794277
-0.9779429928446237 0.1838654502305545 -0.09910095336380391
-0.9889377219753005 0.1258670696366441 -0.07848351951452574
-0.9954716151119659 0.06870976665489362 -0.0656904214676953
-0.998156459699747 0.01175309799780548 -0.05954449300414435
-0.9971908562554583 -0.04526029592805903 -0.05968167066201694
-0.9925545241133299 -0.1023110983594087 -0.06609051228922289
-0.9839980024724263 -0.159654833333053 -0.07910919872978793
-0.9708403519442378 -0.2179241356174021 -0.09989035064607683
-0.9521324137328046 -0.2764291040324193 -0.130502173020899
-0.9288058205886078 -0.328865308536033 -0.1707845323272041
-0.9014810855850859 -0.3730359563516119 -0.2194903815686984
-0.8690632385948602 -0.4101748031807632 -0.2765605144604605
-0.8277602181091757 -0.4426939251663926 -0.3447246871586391
-0.7846762081281807 -0.4542483716261487 -0.4218313232473041
-0.7303936802144756 -0.4552652859034896 -0.5091744213469168
0 0 0
0 0 0
0 0 0
0 0 0
0 0 0
0 0 0
0 0 0
0 0 0
0 0 0
0 0 0
0 0 0
0 0 0
0 0 0
0 0 0
0 0 0
0 0 0
-0.6510878953082516 0.5032704082156362 -0.5681579435311428
-0.7027167494149117 0.5391037146942702 -0.464280470076632
-0.7831557049439848 0.5045233580984545 -0.3634877204896307
-0.8329679101284273 0.4781534137947164 -0.2784488706616321
-0.8698274116435148 0.4484836080398216 -0.2055790049424465
-0.9007919537241044 0.4100608107117023 -0.1429125173816902
-0.9263166972840854 0.3656942312320017 -0.09058203782394521
-0.9476835091475871 0.3157201875237017 -0.04708215882596401
-0.9654766431467968 0.260222509098138 -0.0117939516982911
-0.9795718749067099 0.2005226542335131 0.01515278954183826
-0.9896807034010945 0.1392095723686678 0.03395291263568764
-0.9959451533583957 0.07748888283746859 0.04570256599493989
-0.9985604384067825 0.01564305115309578 0.0513063914096025
-0.9976174016158503 -0.04625705714655139 0.05118402736576464
-0.9931016336384134 -0.1081352647066643 0.04534214145288273
-0.9848936589519302 -0.1699139916170068 0.0333723839282485
-0.9727754636143451 -0.2313035502326035 0.01437237070523226
-0.956603886806899 -0.291111422170246 -0.01277276900087323
-0.9366941423335363 -0.3468023642234395 -0.04829289685940298
-0.9131454926508957 -0.3971174257858787 -0.09199488783921259
-0.8852802089543865 -0.4420710316760107 -0.1444027513123774
-0.8516798768119608 -0.481447045053826 -0.2070027300363505
-0.8118033651974912 -0.5125155572722601 -0.2798269104427459
-0.7583770991183291 -0.5404397814032674 -0.3644022752531272
-0.6734246466274606 -0.57621405839079 -0.4631161886908018
-0.6179927160738901 -0.5427863960986632 -0.5687424118964934
0 0 0
0 0 0
0 0 0
0 0 0
0 0 0
0 0 0
0 0 0
0 0 0
0 0 0
0 0 0
0 0 0
0 0 0
0 0 0
-0.6297165511842689 0.5491143332858865 -0.5494820416943447
-0.6930982702269082 0.5731381816377203 -0.437181212493715
-0.7446464557527317 0.5788936113813706 -0.3322406396525399
-0.7966409182494363 0.5564848323442056 -0.2359827933166652
-0.8374136924521935 0.5241845506671153 -0.1548188119560948
-0.869878281537333 0.4855547547804775 -0.08688127197345749
-0.8971068977016945 0.4408009948239787 -0.02989476640201744
-0.9202716417185864 0.3908917911935029 0.01742736429044067
-0.9400592484207705 0.336316536435759 0.05638968680911816
-0.9567252994156902 0.2774402184340421 0.08777030621587455
-0.9701620211687558 0.2151036449838314 0.1118752635591253
-0.9801304205434725 0.1506346708571111 0.129048652302318
-0.9864999435637819 0.08505005535070818 0.13994409395718
-0.989225581250527 0.01893693353633487 0.1451693560907283
-0.9882904417252039 -0.04733839712070319 0.1450554340679569
-0.9836855005411562 -0.1134596791995878 0.1396056489581305
-0.9754131186726537 -0.179048482306224 0.128494703801848
-0.96351410356801 -0.2435025162189132 0.1111174910650494
-0.9481278687543228 -0.305803716781449 0.08681953290611842
-0.9295035996781982 -0.3646494024328426 0.05526184479948004
-0.9077272659167377 -0.4192488323633291 0.01617489639250417
-0.8824769889886674 -0.4693211570059747 -0.03117716298940424
-0.8529580174355827 -0.5144924201158759 -0.0880918278597309
-0.8178550672387013 -0.5539083458950655 -0.1558801890548344
-0.7738832703428034 -0.5874210105197053 -0.2367303112901583
-0.7179726027319444 -0.6115343212685824 -0.3324772407803143
-0.6622516934525231 -0.6081657414814331 -0.4376723950714771
-0.5951138801279401 -0.5859524573677258 -0.549999261257495
0 0 0
0 0 0
0 0 0
0 0 0
0 0 0
0 0 0
0 0 0
0 0 0
0 0 0
0 0 0
0 0 0
-0.587058537304719 0.594098576517489 -0.5499174075782074
-0.6558531700041426 0.622175141399535 -0.427498202124857
-0.7092998091087349 0.6308272489742083 -0.3145644015936063
-0.7533539417257638 0.6220605822836655 -0.2133037047384807
-0.7929422964912802 0.5964949587314063 -0.1242428212942368
-0.8268387445071633 0.5602906764344299 -0.04911261021841886
-0.8558699524185531 0.5170165315841574 0.01343616819449352
-0.881221528334967 0.4681495889039046 0.06545670636450721
-0.9035446880882783 0.4145101675938123 0.108574018940099
-0.923104302096897 0.3565526175898276 0.1440440152871405
-0.9398763270463717 0.2946544581322201 0.1726593181980884
-0.9536269643099067 0.2294168549994929 0.194842294133519
-0.9640359120504005 0.1617039290080256 0.210918466760308
-0.9708246789742735 0.09237579009484029 0.2212829774267599
-0.9738048544499721 0.0221497383026958 0.2263039870236272
-0.9728799952954738 -0.04837132653202585 0.2261962190740824
-0.9680421983141578 -0.1186168674035114 0.2209623068545173
-0.9593764276656661 -0.1879670213625179 0.2103931294495307
-0.9470705294669167 -0.2556797071083302 0.1941270192122979
-0.9314133682230349 -0.3208765951380481 0.1717770304436358
-0.9127365459816982 -0.3826934001174374 0.1430306230705647
-0.8912690116974715 -0.4405520809244373 0.1074868028222992
-0.8670027050688901 -0.4941280835946735 0.06437193803422427
-0.8396059069816967 -0.5430537292531086 0.01243254220716469
-0.808315728400703 -0.5866251095092546 -0.04996662999738367
-0.7717780068993745 -0.6235093597911054 -0.124879086797246
-0.728985648563113 -0.6503182839853978 -0.2136961714755428
-0.6811093898140156 -0.6610333723324781 -0.3148410388909458
-0.6232638807628988 -0.6547941518324675 -0.4275356753095229
-0.5502605034655927 -0.6287195106139253 -0.5494771654028747
0 0 0
0 0 0
0 0 0
0 0 0
0 0 0
0 0 0
0 0 0
0 0 0
0 0 0
-0.543980385325633 0.6171147407281492 -0.5685549552655436
-0.6093152972409408 0.6612911765149401 -0.4375258259939288
-0.6621577346106029 0.6800611980229401 -0.3147441841225306
-0.7055252533238977 0.6782951436297943 -0.2053042012489907
-0.7424668370930863 0.6607760116565333 -0.1100820522895202
-0.775504067761432 0.6307059130400413 -0.02834593695398871
-0.8052984317082076 0.5914817202642481 0.04054393273409147
-0.8323375244127056 0.5455128019143305 0.09813270811561581
-0.8570180508351825 0.4941019872612407 0.1462302524348389
-0.8794888498527359 0.437918882014782 0.1863502502269167
-0.8996638576879443 0.377335245389704 0.2195974857705287
-0.9172730079197938 0.3126811233846358 0.2466591656936658
-0.9319212167134192 0.2444411655464918 0.2679017775709078
-0.9431681758182722 0.1733093609635062 0.2835448069107478
-0.9506161128186174 0.1000949780175453 0.2937856385620107
-0.9539712052234013 0.02562645626335779 0.2988013124870653
-0.9530740483892289 -0.04928033160447643 0.2986993592291722
-0.947912847733502 -0.1238096146368356 0.2934832404503535
-0.9386283493591715 -0.1971237255826847 0.2830531020704048
-0.9255082497831182 -0.2683590178186046 0.2672413088181211
-0.9089582461224254 -0.3366703796554901 0.2458616730372421
-0.8894348736566392 -0.4013386862374635 0.2187072574300733
-0.8673473695848294 -0.4618726845325483 0.1854242803868302
-0.8429672408837157 -0.517961721942955 0.1453337035886172
-0.8163570651335229 -0.5692873189353896 0.09732980379070029
-0.7873029702499204 -0.6152745732205119 0.03989025675486713
-0.7552831436597799 -0.6547652520114409 -0.02880690302329966
-0.7196225743945934 -0.6855440095338444 -0.110330237985592
-0.6794373562855498 -0.7044133540168719 -0.2053453324680235
-0.6319927104480826 -0.7082704662866099 -0.314544369726488
-0.5743414548908418 -0.6921471839580817 -0.4371088753763393
-0.5045306401048525 -0.6502090963240138 -0.5680466215487041
0 0 0
0 0 0
0 0 0
0 0 0
0 0 0
0 0 0
0 0 0
0 0 0
-0.5774181489644031 0.6725927117740953 -0.4628253723758999
-0.6127281338832101 0.7170550861790147 -0.3322592923197246
-0.6515100935423975 0.7279686112911888 -0.2135328990744837
-0.6867428957048626 0.7184951851277118 -0.1102218859718647
-0.7184741267436977 0.6952099440055005 -0.02186465082614863
-0.7478357783193343 0.6617471443214876 0.05321997414384252
-0.7754790992772436 0.6204906750849152 0.1167197014938808
-0.8016790545614949 0.5729622959030422 0.1703669596808666
-0.8264644645086896 0.5200025608315105 0.2157633556307356
-0.8496594621039261 0.4620317401991981 0.2541760600563456
-0.8709183951866568 0.3992909770131354 0.2864748934922458
-0.8897658447478233 0.3320403995627215 0.3131547773520629
-0.9056449979163491 0.260704369317732 0.3344254319990317
-0.9179819043744268 0.1859304532126146 0.3503413903740918
-0.9262604100412788 0.1085584501867566 0.3609109525675426
-0.9300893487095125 0.02955427609205052 0.3661425244106301
-0.9292497805220603 -0.05004624498729408 0.3660467439581638
-0.9237210568577411 -0.1291762824934374 0.3606284752467457
-0.91368700076679 -0.2067726730058639 0.3498873051823936
-0.8995199671323053 -0.2818226462956027 0.3338260396752167
-0.8817380658588748 -0.3534321923131148 0.3124478654947015
-0.8609357294811317 -0.4209041372899652 0.2857085524008354
-0.8377012999940522 -0.4837789097583082 0.2534057980026042
-0.8125417561685172 -0.5417845795766817 0.2150473524959085
-0.7858192950368877 -0.5947011858611081 0.1697602282135605
-0.7576908745457916 -0.6421728928811273 0.1162691458587237
-0.7280487750273497 -0.6834765069149291 0.05296079376804855
-0.6964578573676161 -0.7172630320862446 -0.02191336837082622
-0.6620195872645129 -0.741361090295336 -0.1100627088265312
-0.6233066926630879 -0.7523465684892945 -0.2132214993001072
-0.5801533997203128 -0.743729399066392 -0.332097295618777
-0.5403862289449582 -0.7018767131818253 -0.4640601287114894
0 0 0
0 0 0
0 0 0
0 0 0
0 0 0
0 0 0
0 0 0
-0.4565744141182585 0.7297611752066663 -0.5089090601802582
-0.5416971149501151 0.7576242370758625 -0.3641012922936951
-0.5886721362494988 0.7730157421153757 -0.2364567157964989
-0.6247746373851499 0.7707914722259893 -0.124648140074153
-0.6560564835321417 0.7541687097768387 -0.02862599533602508
-0.6847995626207036 0.7267954215457556 0.05308459526660918
-0.7122197328342056 0.6911650200563122 0.1226130792865488
-0.7388918939556577 0.648781507806395 0.1819926486841738
-0.7649566940936725 0.6004708016098602 0.2329722570936095
-0.7902619412909777 0.5466131550987307 0.2769478702211404
-0.8144452053953873 0.487346434307304 0.3149165927296009
-0.8369847911014049 0.42274722595711 0.3474784056750935
-0.8572418593660861 0.352986027019885 0.3748829941185543
-0.8745086795827445 0.2784455919651597 0.3971178938925008
-0.8880721220877161 0.199781831768741 0.4140230979857846
-0.8972903809755445 0.1179189739089035 0.4253999151398984
-0.9016698997652945 0.03399749938625873 0.431086490037352
-0.9009276952797265 -0.05069995717713124 0.4309974503639166
-0.8950293042654406 -0.1348305389878235 0.4251391187157135
-0.8841970939063499 -0.2170775370176194 0.4136095284805814
-0.8688865318352238 -0.2962402129547643 0.3965828173583316
-0.8497317934421886 -0.3713205922020594 0.3742684825365783
-0.8274690943984171 -0.4415889672335047 0.3468343723351385
-0.8028532649577783 -0.5066006250603503 0.3142967413688808
-0.7765819986785771 -0.5661453622863275 0.2764051882473789
-0.7492302079963908 -0.6201389708899069 0.2325548369939691
-0.7211852675454684 -0.6684775494329609 0.1817404076683942
-0.6925688025080547 -0.71086471044064 0.1225553639899272
-0.6631255396282866 -0.7466125081229463 0.05323796959930761
-0.63205945534528 -0.7744043846834996 -0.0282611728630957
-0.5978306205176132 -0.7919583843947253 -0.1240986162631217
-0.5578161434810524 -0.7957671344678453 -0.2357876539871401
-0.5058721255894334 -0.7823908008013482 -0.36326027497244
-0.415476165291831 -0.7557065047120782 -0.5062481948711008
0 0 0
0 0 0
0 0 0
0 0 0
0 0 0
-0.3809431160056798 0.7272023340033261 -0.5710158559865021
-0.4555688197439928 0.7841041524480443 -0.4214709107290785
-0.5138155088119694 0.8111069817645151 -0.2794621388259143
-0.5552183026552957 0.8170315800089856 -0.1555378849817384
-0.5879666994508317 0.807359267519845 -0.04966058282696689
-0.6166615977940917 0.7862037444418624 0.04015153834701647
-0.6436125323106652 0.75643631063635 0.1164775351882049
-0.6699707031458468 0.7197616892868611 0.1818855892070144
-0.6962240908990223 0.6770231633842679 0.2385616303871776
-0.7224318704185938 0.6285158350499666 0.2882013839226571
-0.7483546414063411 0.5742249114680481 0.3320106650924006
-0.7735310409229252 0.5140104298331707 0.3707330667089384
-0.7973268804269927 0.4477636020372828 0.4046944556565573
-0.818977483239212 0.375543864761458 0.4338694361062932
-0.8376391065997941 0.2976900553650623 0.4579752810266559
-0.8524586972349433 0.2148883248410256 0.4765891074662959
-0.8626609524929579 0.1281823525175171 0.4892702377490551
-0.8676406995336889 0.03892553810658932 0.4956656322520282
-0.8670429643895471 -0.05131332330539685 0.4955839391606046
-0.8608142266638453 -0.1408750422269359 0.4890328104030283
-0.8492139446015764 -0.2281486013012329 0.4762183239004154
-0.8327832330686118 -0.3117048909329896 0.4575064455155168
-0.8122767198965847 -0.3904054257807885 0.4333475900878714
-0.7885719909833329 -0.4634659954073958 0.4041701202929447
-0.7625750860467468 -0.5304606849678254 0.3702576128106776
-0.7351360787297856 -0.5912656310900316 0.3316321746174526
-0.7069776716739641 -0.6459572361384357 0.2879614919305234
-0.6786284974002755 -0.6946828084899803 0.2384935179511523
-0.650345802821634 -0.7375104247651566 0.1820129394164108
-0.6220077114789552 -0.7742485582642907 0.1168142837429555
-0.5929520785317202 -0.8042084086001181 0.04070218792371764
-0.5617220511067637 -0.8258796549981516 -0.04889921022413352
-0.5255921886256898 -0.8365788316949573 -0.1545597283109574
-0.4795609776071544 -0.8322547833824759 -0.2781604650079841
-0.4154090728874516 -0.8071899836310731 -0.4193800573327911
-0.3349696373407382 -0.7520529739834346 -0.5676369142176053
0 0 0
0 0 0
0 0 0
0 0 0
-0.4076444760853081 0.7677210380441613 -0.4943990178606034
-0.4440216000973317 0.8272398415195003 -0.3442659774793272
-0.4827812375499732 0.8510325568584031 -0.2065571684468121
-0.5158572368253516 0.8521768107363826 -0.08766980357044218
-0.5444698418203725 0.8386824015823983 0.01282266056942111
-0.5707695132469836 0.8152794297422258 0.09768118645364515
-0.5962580048052838 0.7845726655600425 0.1700650586147286
-0.6217725867387686 0.7477980919919002 0.2328021992882655
-0.6476632048081179 0.7053439170392261 0.2881359606738433
-0.6739245048635299 0.6571097113713802 0.3376871169675661
-0.7002760915276898 0.6027527244943428 0.3824951617332552
-0.7262107086415783 0.5418703549036907 0.4230774457836816
-0.7510281970837122 0.4741539181560457 0.4594939706704083
-0.7738716861720614 0.3995285948537944 0.4914260017900585
-0.7937801785114244 0.318274987507462 0.5182799055814298
-0.809766245846934 0.231113654112515 0.5393191132990958
-0.8209176693551788 0.1392304504379197 0.5538132011890962
-0.8265100184387139 0.04422889646474034 0.5611817835050845
-0.8261083011029369 -0.0519892281547038 0.5611080065412514
-0.8196342609784389 -0.1473975832659392 0.5536006057418
-0.8073823556816883 -0.2400426876357399 0.538992801293763
-0.7899801439327631 -0.3282279541713997 0.517878153905364
-0.7683031202767447 -0.410650294315816 0.4909955714172489
-0.7433647858064033 -0.4864668225964904 0.4590847696622858
-0.7162052123578412 -0.5552864118315095 0.4227376191288706
-0.6877948694898079 -0.6170979608617353 0.3822673465047539
-0.6589584717276903 -0.6721575590906055 0.3376062029875421
-0.630312416449701 -0.7208541801733533 0.2882282231079055
-0.602202117386247 -0.7635598913885 0.2330856110494649
-0.5746223247253887 -0.8004509241584078 0.1705505846989115
-0.5471027627062977 -0.8312646691348815 0.09837487935042959
-0.5185449962987136 -0.8549401265198503 0.01372832399780065
-0.4870376953368575 -0.8690822314383214 -0.08654685620604322
-0.4499439160522531 -0.8691595708339758 -0.2052123603374349
-0.4057816590466932 -0.8472524797797379 -0.3427892657134955
-0.363595541637261 -0.7900029324133018 -0.4936533691568309
0 0 0
0 0 0
0 0 0
-0.2908615697916905 0.7589857655718509 -0.5825291021722642
-0.3697372005764956 0.8266052918349925 -0.4242853921834243
-0.4115119013633407 0.868603200155705 -0.2760189046344395
-0.4434336283716549 0.8846847682178521 -0.1438731320034213
-0.4707341795216401 0.881741900564897 -0.03066843684133522
-0.4956124897235312 0.8661190088406814 0.0648546263182324
-0.5195333417042223 0.841921391344553 0.1457857251382839
-0.5434535436034179 0.8113164347206702 0.2154620353960943
-0.5679156869431999 0.7751575027808363 0.2767717803649977
-0.5931346831007448 0.7334922540535556 0.3319342720274792
-0.6190558156241153 0.685913629930012 0.3824818811632718
-0.6453855329892733 0.6318004108617722 0.4293084609497543
-0.6716065428279955 0.5705000738991893 0.4727307027385112
-0.6969904867259435 0.5014909406546247 0.5125535073091114
-0.72062224559142 0.4245394034018246 0.5481513241049425
-0.741449414265561 0.3398466159622526 0.5785819247991255
-0.7583659271983243 0.2481610962335997 0.6027413962726994
-0.7703288631866426 0.1508249475744374 0.619552481821147
-0.7764935968692835 0.04972630557774197 0.628160002351782
-0.7763402034871808 -0.05285019348362743 0.6280945354787169
-0.7697595994778187 -0.1544551581862601 0.6193656134476672
-0.7570755142167624 -0.2527419424675375 0.6024601034850026
-0.7389960722108598 -0.3457109787089359 0.5782462489779169
-0.7165092608395728 -0.4318801915424808 0.547808341744043
-0.6907503132410782 -0.5103554974273438 0.5122511796014144
-0.662871022840261 -0.5808042913886564 0.4725128381147184
-0.633931905963678 -0.6433566742201381 0.4292115193440886
-0.6048242419795862 -0.6984666426035392 0.3825336396762484
-0.5762165070939902 -0.7467584667144258 0.3321540747043767
-0.5485123590858499 -0.788866205915871 0.2771719702530788
-0.5218044725092804 -0.825252909441349 0.2160502902749717
-0.4958091524949637 -0.8559738011475851 0.1465678547676114
-0.469771816268491 -0.8803294351969467 0.06583711844869256
-0.4423551380571876 -0.8963554131320906 -0.02947719768236522
-0.4115701666465181 -0.9001744021041833 -0.1424641840005144
-0.3747179225351375 -0.885609070021372 -0.274377574934306
-0.326572443744918 -0.8456167062261355 -0.4222355090914703
-0.241281152119516 -0.7794425442554207 -0.5781459381821468
0 0 0
0 0 0
-0.3191700653100417 0.7891999362941878 -0.5246846004632046
-0.3472228651798789 0.8636998670814804 -0.3653201630073382
-0.3743737686941538 0.9010791384915099 -0.2188622111949292
-0.3984994510000753 0.9126051860778157 -0.09137812591924456
-0.4207000700913265 0.9070446678285186 0.01677562484691535
-0.4420939828246345 0.890434640010674 0.1080697099992069
-0.4635222901708275 0.8663462327915107 0.1859873421573308
-0.4855482608448513 0.8365137350036634 0.2539442016285476
-0.5084961723420608 0.8014562649742349 0.3148007275198416
-0.5324825092588095 0.7609441430393635 0.3707106533504667
-0.5574272331047375 0.7143168790349548 0.4231149679684679
-0.583048433835619 0.6607063506059475 0.4727807547593301
-0.6088495275759689 0.5992175675484051 0.519846669232276
-0.6341105590022829 0.5291031454365769 0.5638737983369441
-0.657897441528738 0.4499464569261495 0.6039198144866128
-0.6791037029672492 0.3618448546652077 0.6386598952247464
-0.696535661178778 0.2655618738508615 0.666569549156771
-0.709041361160648 0.1626026932045473 0.6861637649468841
-0.7156672918752414 0.05516940443116118 0.6962590496034274
-0.7158102895704865 -0.05402321292056315 0.6962019260320635
-0.7093243527016638 -0.1620485411570497 0.6860023563904405
-0.6965502618359232 -0.2661197795343333 0.6663317459621025
-0.678259228610784 -0.3639059897059874 0.6383861288126563
-0.6555289706931552 -0.4537413261035021 0.6036560093031521
-0.6295884235842067 -0.5346967448234743 0.5636646236583711
-0.6016686580061502 -0.6065269199800103 0.5197306237972128
-0.5728856903011444 -0.6695325701498361 0.4727876091404419
-0.5441636660086694 -0.7243840986913276 0.4232653802984101
-0.5161926301682149 -0.7719399559996608 0.3710173485044355
-0.4894068955121603 -0.8130715121598469 0.3152706880432253
-0.4639677039475891 -0.8484823644662312 0.2545813168388347
-0.4397349671037324 -0.8784878099332829 0.186794878154898
-0.4162179159788731 -0.9027017293370274 0.1090515211729908
-0.3925092325941106 -0.9195731930571348 0.01793446233059191
-0.3672452908064248 -0.9257549473282373 -0.09004817531630725
-0.3387186675498998 -0.9154279338060894 -0.2173967853045066
-0.3055757629838171 -0.8799056914747579 -0.3638535793244106
-0.2711197642578891 -0.807530105970054 -0.5238217267169617
0 0 0
0 0 0
-0.3003252070164309 0.8295982124001617 -0.4707139003821679
-0.3127993447648078 0.8969463304034128 -0.3124801598350817
-0.3301950579455105 0.9284648286442272 -0.1700714134680076
-0.3481929768843284 0.9362142174056638 -0.04758770824413856
-0.3661257533541299 0.9288813632902544 0.055958427988181
-0.3842775026129507 0.911962344472191 0.1437201560336527
-0.4030489479317609 0.888492693341329 0.2193907004641977
-0.4227547927869231 0.8598039215471122 0.2863836616636718
-0.4435894094294595 0.8261215418376606 0.3474933581434169
-0.4656198175731349 0.7869798073115506 0.4047974411567279
-0.4887705441996332 0.7414988107786039 0.4596551628522297
-0.5127970818278382 0.6885847412939826 0.5127281998544176
-0.5372542155070251 0.6271057113837539 0.5640002966930125
-0.5614698695842989 0.5560790939720932 0.6128030897410405
-0.5845388040899681 0.4748849271063037 0.6578743744213708
-0.6053528199800674 0.3834936368620913 0.6974816082367088
-0.62268144790159 0.2826677171687227 0.7296346867507066
-0.6353064341871114 0.1740753759886844 0.7523852059649068
-0.642194411981421 0.06025282668635842 0.7641700950025067
-0.6426711011635043 -0.05561789405531317 0.7641207401910642
-0.6365482342827552 -0.1700898562495019 0.7522471576766041
-0.6241625481977113 -0.2799011736558266 0.7294357040983324
-0.6063145561782646 -0.382373573684578 0.6972611484329513
-0.5841292026547406 -0.47566330473961 0.657675828300029
-0.558882178847548 -0.5588292529588224 0.6126667741963012
-0.5318368626918953 -0.6317436134949642 0.5639588267687337
-0.5041215658348847 -0.6949048896998871 0.5128046812689716
-0.4766563001767059 -0.7492157244188542 0.4598636426000481
-0.4501215917299137 -0.7957689696345795 0.4051447884710448
-0.4249533144874693 -0.835657456324835 0.3479817469276511
-0.4013455242478282 -0.86979614384302 0.2870129584566658
-0.3792456679051744 -0.8987226270260028 0.2201598579365402
-0.3583326757869794 -0.9223236591009106 0.144626281588271
-0.3379857656730807 -0.9394240905408079 0.05699123014952884
-0.3173032674594994 -0.9471853178103906 -0.04646084570855433
-0.2953826909943448 -0.9403227651171331 -0.1689442608181991
-0.2725076503680842 -0.9102903660074149 -0.3116264270644451
-0.253981313852321 -0.8447873544413081 -0.4709860061508238
0 0 0
0 0 0
-0.2509230843631543 0.8701198130295001 -0.4241805237244965
-0.2630564253201247 0.9269391831346335 -0.2675538597506963
-0.2777431380608388 0.9518585083801033 -0.1297078613057897
-0.2924984462006407 0.9561909648435037 -0.01197905346258646
-0.3072891656415628 0.947574308744856 0.08761448559467749
-0.3224833002726305 0.9307101528343074 0.1725779025727572
-0.3384182201002638 0.9080890135525319 0.2466727625202225
-0.355337712602293 0.8806797670965272 0.3132702632382718
-0.3733963794774258 0.8484556887708441 0.3750974379885071
-0.3926591042866851 0.8107498527370441 0.4341699023511865
-0.4130830689807566 0.7664906683491332 0.4917869797535697
-0.4344850221867288 0.7143781967599602 0.548531273027696
-0.4565009731862389 0.6530534076604904 0.6042583124980885
-0.4785487287755227 0.5812973795944871 0.6580915366906896
-0.4998080540987543 0.4982761226175497 0.7084580542891983
-0.5192367479214998 0.4038168643326172 0.7532098908594316
-0.5356399611962946 0.2986658902875363 0.7898661392592955
-0.547800092450994 0.1846475202868982 0.8159781565474538
-0.5546545779260877 0.06463794801553699 0.8295662932291629
-0.5554836861722421 -0.05769642179467298 0.8295233554931341
-0.5500535028370642 -0.1783681002669632 0.815859034897469
-0.5386655373199409 -0.2936277708598011 0.7896975187270902
-0.5220967615105016 -0.4004525043264341 0.7530290588011417
-0.5014538685404516 -0.4968382693240667 0.7083048438778893
-0.4779908891046497 -0.5818581977958646 0.6580013279551146
-0.4529401788612522 -0.6555284880453357 0.604257888433517
-0.4273893312503429 -0.718564553722152 0.5486377144049327
-0.4022130449352429 -0.7721088039935379 0.4920088020346672
-0.378050809170119 -0.8174834796452412 0.434509316577822
-0.3553121536302494 -0.8559867663337107 0.3755528316285086
-0.3341899569814911 -0.8887197051298178 0.3138381085315777
-0.3146648257349673 -0.9164087242435125 0.2473481303255787
-0.2964886475035012 -0.9391716716689611 0.1733523955302407
-0.2791462450283677 -0.9561644507795297 0.08846986465481993
-0.2618262242182611 -0.9650513773415254 -0.01108455695249774
-0.2435332508341871 -0.9612931764818555 -0.1288680898731576
-0.2238128339691886 -0.9373506466471681 -0.2669861055950585
-0.2058611412106736 -0.8817337106497988 -0.4244606625391514
0 0 0
-0.0828295973148325 0.8282831959886486 -0.5541535933759625
-0.1693155178015712 0.9062099539967217 -0.3874477702979394
-0.201489007921027 0.9512755434217638 -0.2334031280309406
-0.2192126115144809 0.9706396859117175 -0.09901732720187441
-0.2326722394897614 0.9724355679161062 0.01525435093664577
-0.2449778893502841 0.9630364359515293 0.1120118599044554
-0.2572854060740298 0.9464475711695992 0.1950415721031989
-0.2701162007850243 0.9247240262051262 0.2681841036162372
-0.2837499253898519 0.8985507454664302 0.3348022366457183