# OOMMF: rectangular mesh v1.0
# Segment count: 1
# Begin: Segment
# Begin: Header
# Title: 
# Desc: time = 8.4e-10
# Desc: stepsize = 9.065602862832079e-14
# Desc: step = 5374
# meshunit: m
# valueunit: (none)
# valuemultiplier: 384000.0000000001
# xmin: 0
# ymin: 0
# zmin: 0
# xmax: 9.357999999999999e-08
# ymax: 9.357999999999999e-08
# zmax: 2.3395e-08
# ValueRangeMaxMag: 1
# ValueRangeMinMag: 0
# meshtype: rectangular
# xbase: 1.16975e-09
# ybase: 1.16975e-09
# zbase: 1.16975e-09
# xstepsize: 2.3395e-09
# ystepsize: 2.3395e-09
# zstepsize: 2.3395e-09
# xnodes: 40
# ynodes: 40
# znodes: 10
# End: Header
# Begin: Data Text
0 0 0
0 0 0
0 0 0
0 0 0
0 0 0
0 0 0
0 0 0
0 0 0
0 0 0
0 0 0
0 0 0
0 0 0
0 0 0
0 0 0
0 0 0
0 0 0
-0.8475924860503836 0.03561441581911071 -0.5294512168054706
-0.8573747402264608 0.05161708508186393 -0.5120978728224325
-0.8677260221296942 0.03022380520192091 -0.4961230413094044
-0.8730224078535922 -0.006681734569395519 -0.4876343197608832
-0.8714988414154797 -0.04801419985221329 -0.4880413978588576
-0.8632436518334865 -0.08520679618091513 -0.49754416834465
-0.8502681733611639 -0.1070670231952297 -0.515345210430039
-0.8387360342823365 -0.09111864411766121 -0.5368605568399469
0 0 0
0 0 0
0 0 0
0 0 0
0 0 0
0 0 0
0 0 0
0 0 0
0 0 0
0 0 0
0 0 0
0 0 0
0 0 0
0 0 0
0 0 0
0 0 0
0 0 0
0 0 0
0 0 0
0 0 0
0 0 0
0 0 0
0 0 0
0 0 0
0 0 0
0 0 0
0 0 0
0 0 0
-0.7890566559961262 0.2526685527345283 -0.5599537445961489
-0.8170013119039442 0.2798847465254503 -0.5041561117447827
-0.8539219003410076 0.2605991601456705 -0.450450292318001
-0.890420705299618 0.2107356866582261 -0.4034122431736749
-0.9223816239771695 0.1276158768900756 -0.3645906303168198
-0.9355821171736294 0.0850574343209661 -0.3427117373123406
-0.9437689110890828 0.04412975506286541 -0.3276473823790111
-0.9474467032637948 -0.0006881030045770311 -0.3199129115694168
-0.9461057792266084 -0.04729549512267549 -0.3203856904655889
-0.9397681241710145 -0.09231630796877105 -0.3291102734268667
-0.9289490259931904 -0.1336104217172381 -0.3452563718671158
-0.912906405404877 -0.1765078851796932 -0.3680310604285158
-0.8766127580576172 -0.2591562276524308 -0.4054480510245154
-0.8359612232729062 -0.3099005067153709 -0.4529133571905576
-0.7954110579236896 -0.3303901262902351 -0.508098035208402
-0.7650197876820456 -0.3041174094559793 -0.5676771315815894
0 0 0
0 0 0
0 0 0
0 0 0
0 0 0
0 0 0
0 0 0
0 0 0
0 0 0
0 0 0
0 0 0
0 0 0
0 0 0
0 0 0
0 0 0
0 0 0
0 0 0
0 0 0
0 0 0
0 0 0
0 0 0
0 0 0
-0.7586124357687394 0.3492087966483093 -0.5500548960244416
-0.7963531644770295 0.3753842245268689 -0.4742450014536599
-0.8515876075526433 0.3366440544323345 -0.4018324617027896
-0.8855814364936958 0.3136382121738921 -0.3426026724970574
-0.9156271104836373 0.278661149459453 -0.2897843307173815
-0.9423323336503542 0.2282397859474346 -0.2447782119955657
-0.9635272745128461 0.1656462129618224 -0.2101821196040524
-0.9759119153396851 0.1105193383495731 -0.1880994666361368
-0.9829938429025692 0.05810454422691345 -0.1742038080979323
-0.9858633556603964 0.005443973746983165 -0.1674628529431653
-0.984648174480387 -0.04763402051751201 -0.1679254971163636
-0.9793329873206013 -0.1003914868577897 -0.1755803215402804
-0.9697248736319275 -0.1529965781235438 -0.1903305454781964
-0.9545570391863791 -0.2083697273656544 -0.2130795993456331
-0.9300394051712768 -0.271196472632993 -0.2479499507160254
-0.8999359152146609 -0.3222388301296445 -0.2937302927234914
-0.8665920415231401 -0.3580570846679269 -0.3475821596225286
-0.829369060925976 -0.3819880364280732 -0.4077157107649756
-0.7702856148571821 -0.4210039238701813 -0.4789736606850141
-0.7296178966715842 -0.3960270613444307 -0.5575125931666722
0 0 0
0 0 0
0 0 0
0 0 0
0 0 0
0 0 0
0 0 0
0 0 0
0 0 0
0 0 0
0 0 0
0 0 0
0 0 0
0 0 0
0 0 0
0 0 0
0 0 0
0 0 0
0 0 0
-0.7591566894107483 0.4303282029303429 -0.4883633469924347
-0.8103144133097987 0.4282946716681636 -0.3999427781608962
-0.850035146766293 0.4167105311825715 -0.3221685621899583
-0.8880593461678683 0.3838961943862667 -0.2529314326445786
-0.9176232602523823 0.346142309509504 -0.1953280671363304
-0.9422893833860357 0.3010821594339361 -0.1464248996194347
-0.9630516599001964 0.2475593901369185 -0.1060464460437629
-0.9793242238348252 0.1877589646373483 -0.07530362414005923
-0.9902719214729292 0.1280070704090192 -0.05455008219620273
-0.9967406626336355 0.06902329866402324 -0.04175925878410209
-0.9993078061335811 0.01021666965898369 -0.03577049428743634
-0.9981601477956129 -0.04862159047873094 -0.03622513342912553
-0.993278032618537 -0.1074270343559334 -0.04310663762040246
-0.9844230171298456 -0.1664093114788417 -0.05673856182623023
-0.9709426559213474 -0.2261576424430339 -0.07825010975716387
-0.9519393803357076 -0.2859732311619309 -0.1096846717863212
-0.9283729647069988 -0.3396454450548403 -0.1508794553762577
-0.9008462494484097 -0.3850165111360328 -0.2005949177007487
-0.8682468877977422 -0.4233006371091798 -0.2587738635420834
-0.8267860754241249 -0.4568862417151358 -0.3281459242717956
-0.7835885047025222 -0.469639214009513 -0.4067284892438583
-0.7291148788740877 -0.4718401195092288 -0.4957402495520617
0 0 0
0 0 0
0 0 0
0 0 0
0 0 0
0 0 0
0 0 0
0 0 0
0 0 0
0 0 0
0 0 0
0 0 0
0 0 0
0 0 0
0 0 0
0 0 0
-0.6514166301327593 0.5212185915634183 -0.5513506631855316
-0.7027299724797256 0.5548007196786491 -0.4453838201177679
-0.7826073465739922 0.5190124336998043 -0.3437322137266461
-0.8320484168442714 0.4912011031992072 -0.2577147808000591
-0.8686411515158996 0.4600267336435639 -0.1839509560354726
-0.8994290174648226 0.4201198011878099 -0.1205271554139487
-0.9248673185774314 0.3742420038104571 -0.06755268766914699
-0.9462045434251565 0.3227134235947285 -0.02351612709099451
-0.964003410803819 0.2656097902563012 0.0122009540039296
-0.9781269309739424 0.2042310707991908 0.03946361138709828
-0.9882626990147054 0.1411401991405068 0.0584489685345017
-0.9945113437031169 0.07755960984462598 0.07022602200445048
-0.9970365352731926 0.01381833669266391 0.07567827232089111
-0.9959151047828604 -0.04995477094794965 0.07521718503693911
-0.9911349345300774 -0.1136243780074625 0.06885522693649124
-0.9825942463580677 -0.1770586282279788 0.05620310662273724
-0.9701083487980339 -0.2399284187724141 0.03638880951227372
-0.9535771770172242 -0.3010334462504687 0.008332569257259897
-0.9333457690498413 -0.3578716906727746 -0.02816963634428827
-0.9095222918131148 -0.4092103355126782 -0.07291160404640458
-0.8814351024023359 -0.4550746369647359 -0.1264089990641366
-0.8476767646523978 -0.4952671726107607 -0.1901434469093948
-0.8077008732618796 -0.5271062920851458 -0.2641557422738445
-0.7541833858666728 -0.5556873536758391 -0.3498842457834065
-0.6691041483925483 -0.591871546239659 -0.4494304299396708
-0.6135699075095485 -0.5597466544495183 -0.5569700633169566
0 0 0
0 0 0
0 0 0
0 0 0
0 0 0
0 0 0
0 0 0
0 0 0
0 0 0
0 0 0
0 0 0
0 0 0
0 0 0
-0.627237539745789 0.5674765253634217 -0.5334261541161126
-0.6902645786055073 0.5896914128862074 -0.4192837333964066
-0.7413407471147002 0.5937068422525483 -0.3129314335919691
-0.7928556590268023 0.5699459127904301 -0.2157349309746978
-0.8332920659172146 0.5364126665842646 -0.1337377433912297
-0.8655612962761943 0.4965662415752103 -0.06500469303476059
-0.8927141644870974 0.4505649083792216 -0.007258364921006248
-0.9159008895599039 0.3993276628587037 0.04077962946351525
-0.935774689901007 0.3433111318904805 0.08039400761717551
-0.952559391637931 0.2828622669196512 0.1123367408974021
-0.9661182170370224 0.2188119351658227 0.1368828979025207
-0.9761790986050699 0.1524913837424768 0.1543397075638582
-0.9825740906954185 0.0849487553447469 0.1653235169582629
-0.9852286974451236 0.01682807908083345 0.1704148746002935
-0.9841122853610054 -0.05143339243360275 0.1699341517891838
-0.9792200754697494 -0.1194456180094516 0.1638926115947807
-0.9705760790636518 -0.1867643318457114 0.1519906546457784
-0.9582570732595593 -0.2527400100555779 0.1336632667008005
-0.9424447380154226 -0.3163358397239046 0.108303057635567
-0.9234240272583294 -0.3762586303380364 0.07561421148271245
-0.9013056180568155 -0.4317381318805487 0.03536054778301582
-0.8757868013485489 -0.4825184861906959 -0.01316772827468051
-0.8460871334528556 -0.5282616061262321 -0.07124772346161408
-0.8108904462204574 -0.5681612095520653 -0.1401767605158612
-0.7668916638189981 -0.6021107831307408 -0.2221255969099784
-0.710992656852125 -0.6267048154304876 -0.3189522161995337
-0.6552951201940618 -0.6241090516144903 -0.4255304890871051
-0.5880175043191114 -0.6027261945026265 -0.5394038830734397
0 0 0
0 0 0
0 0 0
0 0 0
0 0 0
0 0 0
0 0 0
0 0 0
0 0 0
0 0 0
0 0 0
-0.5820292283816102 0.6126205731101416 -0.5347317184455289
-0.6504396014716122 0.6390373714242146 -0.4105600598702706
-0.7033885312219492 0.6461305180859754 -0.2962430214256144
-0.7469453673330553 0.6359854687521678 -0.1938945635023624
-0.7861097997898805 0.609283580097046 -0.1039466290864681
-0.8197206919390942 0.5720799547140792 -0.0279734270554961
-0.8486121642915097 0.5278270348312787 0.03544031486456217
-0.8739530467963496 0.4779120362385695 0.0883524624087032
-0.8963688233245677 0.423087378627301 0.1323631467516855
-0.9160903407516854 0.3637625341383703 0.1686870070239286
-0.9330564271085786 0.3002918002624084 0.1980670051435498
-0.9469949071255943 0.2332734568035192 0.2208713205219792
-0.9575453862488563 0.1635916748483217 0.2373701691321993
-0.9643902896405087 0.09215452074661369 0.2479090832403221
-0.9673112799503096 0.01975219851683823 0.2528215543315966
-0.9661982721732005 -0.05292387190547217 0.2523092599015234
-0.9610493754382632 -0.1252118321587054 0.2463860691215792
-0.9519746218081453 -0.1964103859106318 0.2348771588291946
-0.9392014702648331 -0.2657178511029696 0.2174732669952684
-0.9230647850135888 -0.3322255395978371 0.1938494093536078
-0.903939066443647 -0.3950680339397555 0.1637541227449361
-0.8820882525155652 -0.4536871309863714 0.1268396702589168
-0.8575309941210369 -0.5077940119279016 0.08237618328103979
-0.8299525020257467 -0.5570722475888267 0.02914370167867159
-0.7985924170760438 -0.6008841397278299 -0.03447320716421811
-0.762083603738236 -0.6379750279525924 -0.110528026410641
-0.7193910095875569 -0.6650524645593472 -0.2004539715449241
-0.6716363273981476 -0.6761850282708048 -0.3027844964022077
-0.6138337889760003 -0.6704627251081604 -0.4167586996715314
-0.5406811728241789 -0.6449869717325136 -0.5400515490661897
0 0 0
0 0 0
0 0 0
0 0 0
0 0 0
0 0 0
0 0 0
0 0 0
0 0 0
-0.5365395033322854 0.635873037519636 -0.5547890063073492
-0.6015565442590046 0.6783736481603571 -0.4218280663265207
-0.6538802675941482 0.6956162086638992 -0.2975881145057166
-0.696690176238233 0.6925661045410282 -0.1870160131486198
-0.7331228267724963 0.674003416901632 -0.0908312439088496
-0.7657501165892624 0.6430861662966297 -0.008181788400703743
-0.7952680782842084 0.6031135825981502 0.06166595614896241
-0.8221729907071922 0.5563816098669206 0.1202957919192713
-0.8468519008776666 0.5040919516588109 0.1695085904982189
-0.8694317126597699 0.4468347835302944 0.2107775444608212
-0.8897942018552115 0.3849273840477629 0.2451472768663618
-0.9076296857576182 0.318672140573834 0.2732332709492333
-0.9224987063231529 0.2485543249182522 0.2953250487116537
-0.9339145155844044 0.1752997429775167 0.3115664900029582
-0.9414359731757352 0.09978181796994748 0.3220898899581728
-0.9447366990637063 0.02292151995291406 0.3270277868396804
-0.9436428197358354 -0.05435526680859008 0.3264716430735875
-0.9381500323726987 -0.1311196593426462 0.3204405587514977
-0.9284278073298602 -0.206433686627693 0.3088801379207906
-0.914808512375801 -0.2793592775198545 0.2916912404381697
-0.8977498139491779 -0.3490110494915089 0.2687685972859392
-0.8777584786189468 -0.4146640456501955 0.2399870464370189
-0.8552859448404867 -0.4758504966094715 0.2050664707718807
-0.8306347639928484 -0.5323062936049356 0.1633887959289749
-0.8038848903491753 -0.5837785073926576 0.1138935352629567
-0.7748240021021726 -0.629772571379413 0.055084245520239
-0.7429154717749775 -0.6692202774760773 -0.01486008116412186
-0.7074529579302766 -0.6999973636847716 -0.09753975164039889
-0.6675019650450688 -0.7189767057835 -0.1936843390717945
-0.6202520673742147 -0.7230794375448916 -0.3040452267636757
-0.5626609761276187 -0.7073503973900869 -0.4278645127317769
-0.4926505706906906 -0.6659458908055439 -0.5601887947088434
0 0 0
0 0 0
0 0 0
0 0 0
0 0 0
0 0 0
0 0 0
0 0 0
-0.5675048657081352 0.6901109228105708 -0.4490936891285972
-0.602345161648272 0.7327855602663007 -0.3165527268941467
-0.6405061570307194 0.7423728356334867 -0.196556444105084
-0.6751134139191631 0.7319254963308585 -0.09223310776092392
-0.7062821513943363 0.7079244510433506 -0.00291448739197245
-0.7351818162656617 0.6739068087615473 0.07319364820221357
-0.7624890353320902 0.6321475193373133 0.1378404323629997
-0.7884909787415155 0.584054933102182 0.1927739908863531
-0.8132149286640089 0.5303647530786527 0.2395719275912971
-0.8364700957747779 0.471410067707135 0.2794464652467225
-0.8578827350847013 0.4073691503366516 0.313189380722888
-0.8769378824347059 0.3384688342520558 0.3412019908954046
-0.8930306545443129 0.2651351574339275 0.3635926269008243
-0.9055352657916275 0.188056271290049 0.3803166065742716
-0.9138869665434713 0.1081525297612597 0.3912973839526804
-0.9176581671399767 0.02650439407936653 0.3964858198924438
-0.9166137802537728 -0.05571639551770156 0.3958722787963342
-0.9107418038788766 -0.1373041491161716 0.3894829101551609
-0.900258671143645 -0.2170729286186543 0.3773773558278215
-0.885587154808291 -0.2939197438041556 0.3596478492089939
-0.8673040044757908 -0.366901872544016 0.3364027047215157
-0.8460603694431179 -0.4353161434372156 0.3077039267229517
-0.8224916381467652 -0.4987337288047066 0.2734450089710976
-0.7971372504693393 -0.5569421078185727 0.2332116902146772
-0.7703747143045014 -0.6098008865005266 0.1861872132651139
-0.7423581294609898 -0.6570463341955225 0.1311278854531165
-0.712959703051697 -0.6980516865438587 0.06642518150302595
-0.6817086215833689 -0.7315595655261062 -0.009693159761250961
-0.647656792218177 -0.7554749067236447 -0.09898658901366626
-0.6093145281466857 -0.7664335255698499 -0.2032620394268224
-0.566442958538853 -0.7580135385043294 -0.3233540631658994
-0.5267909576195722 -0.7167100022653954 -0.4569661471301682
0 0 0
0 0 0
0 0 0
0 0 0
0 0 0
0 0 0
0 0 0
-0.4449814403884366 0.7461737854279537 -0.4951930932979071
-0.5295098330216491 0.7729457407870629 -0.3495342880641658
-0.5757910575876255 0.7872114110399874 -0.2208231245376145
-0.6111485408382066 0.7841066369856581 -0.108047410271471
-0.6416961643711252 0.7668789124754062 -0.01107999241530913
-0.6697600118160723 0.7391117998571441 0.07166082530969885
-0.6965888128126545 0.703201797996203 0.1423771651605807
-0.7227842788701665 0.6605438003840758 0.2031373279146277
-0.7485060171312222 0.6118512921455962 0.2556887534056163
-0.7736097364797357 0.557396892999519 0.3013912395844243
-0.7977269631937972 0.4972242999499739 0.3411739845487344
-0.8203145260704779 0.4313380027627858 0.3755417495970018
-0.8406969949983885 0.3598679984543613 0.4046277131995912
-0.8581178866654436 0.2831969943298639 0.4282909700044624
-0.8718088098816984 0.202028572579428 0.4462441650869788
-0.8810749277689054 0.117383696156217 0.4581790474625857
-0.8853823086820124 0.03054218299295569 0.4638591839458758
-0.8844298147558652 -0.05704782215564105 0.4631732383873269
-0.8781924099388946 -0.1438743401325505 0.4561559660654884
-0.8669285843934067 -0.2284727854543262 0.4429842162745585
-0.8511495451470005 -0.3095354823908503 0.4239483894734323
-0.8315537032761473 -0.3860097344685093 0.3993931940622863
-0.8089384155057163 -0.4571634487030795 0.3696217270250859
-0.784107212794863 -0.5225943031809848 0.334770179564805
-0.7577884351557724 -0.5821669787396164 0.2946833833275162
-0.7305671520602746 -0.6358923172176033 0.2488224210841257
-0.7028208699810192 -0.683769968840804 0.1962178749007558
-0.674643601548707 -0.7256058782681962 0.1354699978298837
-0.6457382102055866 -0.7608044427143662 0.06479786899711813
-0.6152557557358063 -0.7881245939266834 -0.01788797031140397
-0.5815942977956091 -0.8053382750484743 -0.1147969316383482
-0.5420583718908742 -0.8089619613390454 -0.2274934429153919
-0.490409964357969 -0.7955148232743084 -0.3558851399107033
-0.3999565433023623 -0.7686628189526798 -0.4991915806875599
0 0 0
0 0 0
0 0 0
0 0 0
0 0 0
-0.3674944962062073 0.7434571664338419 -0.5587658158265484
-0.4417397150630568 0.7989963636677482 -0.4080083761171135
-0.4993191151200403 0.8248654179881779 -0.2650989692226804
-0.5399099295129778 0.8299399547447546 -0.140345785585338
-0.5717775769033011 0.8197194641924999 -0.0336214600300185
-0.599577682378782 0.7982735924352384 0.05714782947607907
-0.6256618441651663 0.7683915002445536 0.1346170832686798
-0.6512178992683747 0.7316776550180721 0.2014027229700212
-0.6767671756254184 0.6888666446651563 0.2597093295662724
-0.7023968528043302 0.6401408953847497 0.3112206535989901
-0.7278860284790576 0.5853743234276091 0.3570977891511691
-0.7527782593409112 0.5243246565458684 0.3980057120214786
-0.776427511106625 0.4568006041317271 0.4341584135562273
-0.7980396404806205 0.3828115452121343 0.4653902159197801
-0.8167258529555682 0.302692412326415 0.4912597934230059
-0.8315784360578189 0.2171820383022537 0.5111841810174778
-0.8417674112201776 0.1274373062331592 0.5245830328820366
-0.8466448974750106 0.03497746825126127 0.5310075275306936
-0.8458362048800524 -0.05842971654196099 0.5302330456873992
-0.8392975228621912 -0.1509224424569912 0.5223045897560209
-0.8273266208549849 -0.2407142443360272 0.5075306049869375
-0.8105234349501879 -0.3262530582164934 0.4864264624801299
-0.7897093311996816 -0.4063422615651121 0.4596141193243535
-0.7658233174474455 -0.4802036564025335 0.4276904193823211
-0.7398173119084741 -0.5474695653338929 0.3910849268811533
-0.7125658155073775 -0.6081100518540494 0.3499315981793742
-0.6847931158640481 -0.6623136659644444 0.303972032170636
-0.6570083092597958 -0.7103436819494784 0.2524914554555105
-0.6294318871840868 -0.7523767129697742 0.1942801615623074
-0.6018922730070554 -0.7883150343620121 0.1276130804158389
-0.5736683992576678 -0.8175443049673103 0.05025810490519963
-0.543236691553953 -0.8386067623739041 -0.04040538392680788
-0.5077954695269687 -0.8488456308903631 -0.1469859042433186
-0.4622517680324147 -0.8442053061391742 -0.2713682074919039
-0.3982828161563165 -0.8189431748856907 -0.4131620440731922
-0.3176871772330196 -0.7637923040012718 -0.5618684666095294
0 0 0
0 0 0
0 0 0
0 0 0
-0.3921718755970774 0.7827861911213511 -0.4831635323370311
-0.4280892284992386 0.8407521949380248 -0.3314745226255252
-0.4660790099813688 0.8634710853503705 -0.1928420110314133
-0.4982048523001416 0.8639652829047046 -0.07318411767581122
-0.5257586347899753 0.8501681130196082 0.02814316166424347
-0.5509432961779671 0.8267169529682742 0.1140200160998422
-0.5753059210482683 0.7961160092080245 0.1876763093453504
-0.599726635641768 0.7594963729265752 0.2519786141980739
-0.6245966984934653 0.7171369043665746 0.3091821867873193
-0.6499483585351138 0.6688232418730438 0.3608913996868622
-0.6755313259690635 0.6140965255095393 0.4080966613335501
-0.700856269905593 0.5524431095669413 0.4512284339733327
-0.7252247526716883 0.4834600848292975 0.4902197512229961
-0.7477629612596737 0.4070116548944159 0.524587520389374
-0.7674751629846066 0.3233683435309186 0.5535474583121313
-0.7833263918736293 0.2333070477986808 0.5761662826317632
-0.7943537500130839 0.1381424738289767 0.5915393281638683
-0.7997915428701222 0.03967197782661501 0.5989654598795773
-0.7991851389327795 -0.05996841915892431 0.5980860326178606
-0.7924656143437964 -0.1585138843564585 0.5889580617912756
-0.7799651210786497 -0.2538078707899709 0.5720454305610946
-0.7623685775121468 -0.3440164312450725 0.5481303194090883
-0.7406147428406504 -0.4277793530505774 0.5181646724649472
-0.7157722773579549 -0.5042728532485155 0.4830930929359345
-0.6889177542844332 -0.5731846709058187 0.443679682733254
-0.6610344504875332 -0.6346193884967745 0.4003644427426394
-0.6329360066319374 -0.6889639407711372 0.353158179610667
-0.6052073361855826 -0.7367357265591608 0.3015701401639359
-0.5781468108568348 -0.7784216219764305 0.2445527418281251
-0.5516915427597101 -0.8142929384639365 0.1804534621867313
-0.5253064393287866 -0.8441609125252072 0.1069836368998561
-0.497822703990513 -0.8670180695833957 0.02126552156555915
-0.4672529381547475 -0.8805052790603255 -0.07990710439412288
-0.4308797216408066 -0.8801161432967494 -0.1993445253504499
-0.3871475715492109 -0.8579679216298198 -0.3376504158116132
-0.3450662033634453 -0.8008187324846033 -0.4895086035996608
0 0 0
0 0 0
0 0 0
-0.2739789611249228 0.773073013991639 -0.5720958345406745
-0.3525272687160355 0.8396817326850966 -0.4131090807602341
-0.3936587841939698 0.8805602967374309 -0.2639059026179836
-0.42466176830512 0.89582481560413 -0.1309972606117945
-0.4508328024562284 0.8924453294156695 -0.01706218724606373
-0.4744254905396271 0.8767150416311207 0.07931702026662121
-0.4969543039938437 0.8526468056820414 0.1613376722969705
-0.5194240666477313 0.8223063565300137 0.23240244189222
-0.5424253809796542 0.7864429314610687 0.2954356471788689
-0.5662211457776849 0.7449959736007101 0.3526678513742575
-0.5908031511255361 0.6974436214949972 0.4056156203304794
-0.615919666086388 0.6430444047991863 0.4551229047021167
-0.6410863767884258 0.5810264000899105 0.5014145788614915
-0.665594383083101 0.5107626305778713 0.5441559081856949
-0.6885309746125484 0.4319470822380154 0.5825348188264445
-0.7088279726602568 0.3447640234126702 0.615386604773501
-0.7253485454602466 0.2500202789842321 0.6413730175922205
-0.7370119130813232 0.1492016319840403 0.6592058198996019
-0.7429402735910511 0.04441700594349814 0.6678823844506372
-0.7425972690299792 -0.06177944056830775 0.6668827458798756
-0.7358819420878641 -0.1666653354849933 0.6562777104676552
-0.723150522089362 -0.2676655096434665 0.6367169680079099
-0.705159460933435 -0.3626333679681618 0.6093005621958136
-0.6829473691753276 -0.4500358177810199 0.5753700145564303
-0.6576887960372898 -0.5290165124895175 0.5362713651505623
-0.6305542568971256 -0.5993457255898572 0.4931389564068941
-0.6025988483272456 -0.6612928811910371 0.4467285006362742
-0.574686072462258 -0.7154609987972299 0.3973052696831166
-0.5474389680230896 -0.7626140550983023 0.3445727488591307
-0.5212038449283297 -0.803505208172185 0.2876211613774253
-0.4960088083502555 -0.8386921228927406 0.2248794900310535
-0.4715014838422421 -0.8683007318162831 0.1540785184958319
-0.4468555888505432 -0.8916816844026422 0.07227625069066929
-0.4206595071779151 -0.9069032399300442 -0.02391845365448263
-0.3908489935276263 -0.9101042136482892 -0.1376494989386809
-0.3546539968018659 -0.8950996954254149 -0.2702167237640759
-0.3067818092950571 -0.8547814407387582 -0.4186091375665648
-0.2212795540890367 -0.7881397977554148 -0.5743439893793701
0 0 0
0 0 0
-0.3006435810856188 0.8021731929551805 -0.5158794487630859
-0.3283701502982557 0.8752754481703188 -0.3550576491548211
-0.3547664140913621 0.9115951805311224 -0.2076897163202492
-0.3778094288535047 0.9224635289689586 -0.07950517713660582
-0.3986663249759859 0.9166259221962945 0.02936120038305032
-0.418507251980391 0.900045295653536 0.1215324887088208
-0.4382213202001938 0.8761995078617858 0.2005903710170634
-0.4584201837739547 0.8467256601620912 0.2700122062643172
-0.4794780670877646 0.8120438124375251 0.3326944992988459
-0.5015633621012704 0.7718197740160688 0.3908048492987944
-0.5246492471652231 0.7252797682054887 0.4457717187987105
-0.5485066348894692 0.6714335159836259 0.4983146647411614
-0.5726880900110487 0.6092613059716599 0.5484788169156614
-0.5965149706619691 0.5379019452052678 0.5956772507999096
-0.6190821604937873 0.4568574986515863 0.6387632616894617
-0.6392968129703805 0.3662023298333642 0.6761622871400987
-0.6559634321002037 0.2667600967748949 0.7060814588388294
-0.6679172024950423 0.1601920724314121 0.726790967569992
-0.6741890482807136 0.0489451245222363 0.7369352087964366
-0.6741674884711472 -0.06396612052018945 0.7358033248865496
-0.6677125308524887 -0.1753129667442733 0.7234814025487353
-0.655185761406415 -0.2820620204703302 0.7008370956638145
-0.6373871336146739 -0.3817327277541417 0.6693412929618576
-0.615419790779049 -0.4726213933037817 0.6307832430471367
-0.5905240583795736 -0.5538595686516588 0.5869590400427581
-0.5639218395964197 -0.6253308628918164 0.5394010296070686
-0.5366986538265287 -0.6874976431512027 0.489184572163036
-0.5097303522005637 -0.7411948287571206 0.4368125385897147
-0.4836467123771151 -0.7874278212195465 0.3821560989651286
-0.4588153083350667 -0.8271877200107929 0.3244210053321807
-0.4353282845567323 -0.8612684965615616 0.2621180297031844
-0.4129759837499931 -0.8900495139944737 0.1930354876283779
-0.3911980380525054 -0.9131870397240579 0.1142520262572255
-0.3690171953557978 -0.9291552630680876 0.02228915980052533
-0.3450001385953864 -0.9346170954491376 -0.08640479884463093
-0.3173714139746774 -0.9237497805865574 -0.2143868663374698
-0.284711822076456 -0.8878570931132624 -0.3614539536073324
-0.2502736568486991 -0.8153156780896045 -0.5221335478102008
0 0 0
0 0 0
-0.2804994224920956 0.8409145477621577 -0.4627988735331648
-0.292547307272791 0.9069192398254364 -0.3031725011307769
-0.3090370316790388 0.9375032678148398 -0.1599491665733365
-0.325760259984727 0.9447347137622875 -0.03683169324333411
-0.3421106553771895 0.9372394909806027 0.06739759657294966
-0.3584183547245007 0.9204295696396447 0.156031055657391
-0.3751277783286921 0.8972515840225848 0.2328491891657376
-0.392598843041339 0.8689483115574421 0.3013220540950689
-0.411074113477862 0.8356544060994797 0.364279819362691
-0.4306727419696088 0.7968064769367956 0.4238165023166863
-0.4513762325121484 0.7514161023154468 0.4812830122746907
-0.4730018642976836 0.6982699213118716 0.5372972672199514
-0.4951698082259856 0.6361110747903371 0.5917512666235046
-0.5172739454910299 0.563840784409924 0.6438254694807777
-0.5384712721433054 0.4807541252184386 0.6920434669598606
-0.5577070507041217 0.3867966787061508 0.7344053206076329
-0.5737914704550406 0.2827934635795397 0.7686294330753469
-0.5855325106077245 0.1705786643102388 0.7924989579195353
-0.5919106517557311 0.05294989808496342 0.8042624500938091
-0.5922577692396704 -0.06659050032906925 0.8029921793150745
-0.5863887018845977 -0.1842772142911931 0.7887903388069442
-0.5746415113535284 -0.2965959561068707 0.7627699340236106
-0.5578130676485499 -0.4007275746230688 0.7268163402794591
-0.5370139600647303 -0.4948105323485637 0.6832119318136404
-0.5134897788349401 -0.5779902391358714 0.6342361787975374
-0.4884566177317883 -0.6502919100529559 0.5818337944067011
-0.4629808466639106 -0.7123935261411248 0.5273937803336159
-0.4379112438251508 -0.7653711153430235 0.4716362987833792
-0.4138535208165289 -0.8104654711659796 0.4145732545105496
-0.3911697430389892 -0.848883849096073 0.3555030841985005
-0.3699834511705106 -0.8816227651185591 0.2930077573796704
-0.3501753018630726 -0.9092731456404493 0.224943558659117
-0.3313601590949357 -0.9317530108218338 0.1484478756635675
-0.3128548829899001 -0.9479016248466291 0.06003608750156513
-0.2936967735220402 -0.9548823327714465 -0.04406740046455235
-0.2729242026037452 -0.9474057844370644 -0.1671366484296605
-0.2507627604449404 -0.9169289113891036 -0.3104181203358241
-0.2324518572461515 -0.8511950845636969 -0.470566745613643
0 0 0
0 0 0
-0.2300494185145909 0.8794352288157189 -0.4167384591790657
-0.2416207994496815 0.9351343397754571 -0.2591199641980834
-0.255235867582906 0.9593182754259488 -0.120677662941341
-0.2685196770474511 0.9632711415228324 -0.00242712744437893
-0.2814884451772707 0.9545690664737223 0.09778625958266352
-0.2945480659142009 0.9378391306754258 0.183573423567151
-0.3080733046696644 0.9154951906651725 0.2587651344730405
-0.322347587269093 0.8884292384745864 0.3267805398203208
-0.3375688222780089 0.8565344691204543 0.3903792943207657
-0.3538509665876609 0.8190559101985361 0.4515937437717943
-0.3712085116373406 0.7748224423374845 0.511717132543132
-0.3895262242321513 0.7224227111349378 0.5712921731232532
-0.4085201344344987 0.6603802921851549 0.6300866364676111
-0.4276995818902561 0.5873664988542998 0.6870761702129838
-0.4463440250618587 0.5024681953297219 0.7404746612637535
-0.4635129146971569 0.4054928093144435 0.7878650642738424
-0.4781062549868033 0.2972547364021627 0.8264708286618313
-0.4889851879991316 0.1797499883625384 0.8535709856837453
-0.4951421707574374 0.05612216302430635 0.8669974241917247
-0.495884964204402 -0.06963903906396286 0.8655914200789226
-0.4909794637670578 -0.1932308826555804 0.8494710072434239
-0.4807013560700351 -0.3106650532930811 0.8200081895535163
-0.4657789994212712 -0.418799935583315 0.7795232758895209
-0.4472508566067826 -0.5156408966018047 0.7308085501799944
-0.426287191149639 -0.6003726048552481 0.6766328147533746
-0.4040264483708301 -0.6731825718461172 0.6193446972240092
-0.3814587455683864 -0.7349740056757671 0.5606268245547209
-0.3593639890299354 -0.7870619798328177 0.501389033875031
-0.3382943045512707 -0.8309086195389717 0.4417553955346917
-0.3185814403334761 -0.8679144646842121 0.381090996832731
-0.30034996952755 -0.899248047643915 0.3180296285150273
-0.2835196985030684 -0.9256749104859897 0.2504846116181259
-0.2677866771695744 -0.947330111197461 0.1756586347125686
-0.2525824977835073 -0.9633702153262739 0.09011054342113564
-0.2370440473106376 -0.9714474829479731 -0.009995374362113162
-0.2201256192730755 -0.9670030617936192 -0.1282567355791117
-0.201321319221633 -0.9424850244635347 -0.2668177375828514
-0.1837511582385326 -0.8864425673878419 -0.4248000548126713
0 0 0
-0.06162222759931177 0.8355844993899614 -0.5458949032963447
-0.1476484994536749 0.9131301526881255 -0.3799911115550443
-0.1790529740950366 0.9575744848331114 -0.2258121751906274
-0.1955585573532297 0.9764481490273688 -0.09113650699334612
-0.2073750461040148 0.9779788857384673 0.02351359825937585
-0.2176440283162298 0.9685244995494385 0.1207947462052597
-0.2275527409046825 0.9520385978134033 0.2045538031429736
-0.2376545537354818 0.9305151096177144 0.2786789261173528
-0.2482625854867943 0.9045749109760772 0.3465687797249393