# OOMMF: rectangular mesh v1.0
# Segment count: 1
# Begin: Segment
# Begin: Header
# Title: 
# Desc: time = 2.7199999999999997e-09
# Desc: stepsize = 8.861629137563638e-14
# Desc: step = 17406
# meshunit: m
# valueunit: (none)
# valuemultiplier: 384000.0000000001
# xmin: 0
# ymin: 0
# zmin: 0
# xmax: 9.357999999999999e-08
# ymax: 9.357999999999999e-08
# zmax: 2.3395e-08
# ValueRangeMaxMag: 1
# ValueRangeMinMag: 0
# meshtype: rectangular
# xbase: 1.16975e-09
# ybase: 1.16975e-09
# zbase: 1.16975e-09
# xstepsize: 2.3395e-09
# ystepsize: 2.3395e-09
# zstepsize: 2.3395e-09
# xnodes: 40
# ynodes: 40
# znodes: 10
# End: Header
# Begin: Data Text
0 0 0
0 0 0
0 0 0
0 0 0
0 0 0
0 0 0
0 0 0
0 0 0
0 0 0
0 0 0
0 0 0
0 0 0
0 0 0
0 0 0
0 0 0
0 0 0
-0.8357655360806383 0.02987387079356931 -0.5482732170584769
-0.8456130767474116 0.04855560398345309 -0.5315833685844371
-0.8561667641088854 0.0294066421471698 -0.5158621147486487
-0.8617249669139193 -0.005460814210992376 -0.507346292886187
-0.8604885806382545 -0.04484453030257542 -0.5074922370766896
-0.8525308551212 -0.08008560152656258 -0.5165050217514282
-0.8398543064526164 -0.09987590742290112 -0.5335443252902667
-0.8286057763689035 -0.08152437199576089 -0.5538648247892106
0 0 0
0 0 0
0 0 0
0 0 0
0 0 0
0 0 0
0 0 0
0 0 0
0 0 0
0 0 0
0 0 0
0 0 0
0 0 0
0 0 0
0 0 0
0 0 0
0 0 0
0 0 0
0 0 0
0 0 0
0 0 0
0 0 0
0 0 0
0 0 0
0 0 0
0 0 0
0 0 0
0 0 0
-0.7798557699047659 0.2406597554622394 -0.5778476098826569
-0.8079095908729677 0.2704437007589524 -0.5235859983758885
-0.8451144796370266 0.2532599627601334 -0.4707875397358907
-0.8819956621382646 0.2051013136079329 -0.4242842244599531
-0.9143362113169833 0.1232550228828584 -0.3857427795936693
-0.927696647409501 0.08260989803677593 -0.3640803965218739
-0.936075316114878 0.04364327195118304 -0.3490820353066388
-0.9399789715025567 0.0007292031631854719 -0.3412315949553056
-0.9388829531286441 -0.04403005103811435 -0.3414090727119249
-0.9328037557124744 -0.08723786649351341 -0.3496665668581448
-0.9222649664087827 -0.1267517632057636 -0.3651866950742266
-0.9065493867011613 -0.167997918896876 -0.3872272055500055
-0.8705957207922761 -0.2496441043666213 -0.4239586207322171
-0.830186861992144 -0.2990943714213046 -0.4704597019509011
-0.7898818489272776 -0.3179968811878495 -0.5243707164688218
-0.7597309378235481 -0.2897596510944478 -0.5821067313743891
0 0 0
0 0 0
0 0 0
0 0 0
0 0 0
0 0 0
0 0 0
0 0 0
0 0 0
0 0 0
0 0 0
0 0 0
0 0 0
0 0 0
0 0 0
0 0 0
0 0 0
0 0 0
0 0 0
0 0 0
0 0 0
0 0 0
-0.7525464746196031 0.3344745992006817 -0.5672746654198033
-0.790461977849274 0.3630333248948357 -0.4933322071286387
-0.8460137918078725 0.3259480029933081 -0.4219224613783193
-0.8802570181985279 0.3048932146390944 -0.3635762775254662
-0.9105917218172244 0.2717745449869169 -0.3113861153858598
-0.9375947562438463 0.2230353027051135 -0.2667795472132005
-0.9590293953179682 0.1620029579818293 -0.2324169970574217
-0.9715528230366388 0.1086084071691042 -0.2104502932802112
-0.9787793885482154 0.05799906620138644 -0.1965375711484913
-0.9818294655086709 0.0071424453189654 -0.1896309208273338
-0.9808332311767116 -0.04416877573572142 -0.1897769529459727
-0.9757745000252632 -0.09521920714653277 -0.1969706264670765
-0.9664608722589161 -0.1462108300449075 -0.2111297600294983
-0.9516156932551562 -0.2001314689588663 -0.2331844066031741
-0.9273877900408531 -0.2617465541979999 -0.2672837972055452
-0.8974953438554822 -0.3115459219945256 -0.3121558044411635
-0.8643387812961444 -0.3460358966681213 -0.3649351029492561
-0.827328293057382 -0.3686291742870209 -0.4238400964647243
-0.7685555409247048 -0.4066234675421888 -0.4939430495086457
-0.72810363598711 -0.3800165304325011 -0.5704844711825144
0 0 0
0 0 0
0 0 0
0 0 0
0 0 0
0 0 0
0 0 0
0 0 0
0 0 0
0 0 0
0 0 0
0 0 0
0 0 0
0 0 0
0 0 0
0 0 0
0 0 0
0 0 0
0 0 0
-0.7562146038911072 0.4150513648198303 -0.5058377580044923
-0.8076528820358293 0.4149084602755065 -0.4189842380460467
-0.8476758792982331 0.4052084574798813 -0.3424203697836066
-0.885986254977873 0.3740762344588142 -0.2740352656199505
-0.9157614744288528 0.338013401068576 -0.2170895268085198
-0.9406101915046091 0.2946200156969581 -0.1686757658597888
-0.9615296250229954 0.2427191559894926 -0.1286397742492019
-0.977916464415249 0.1845332029560564 -0.09811669395346057
-0.9889401389306263 0.1264771513790555 -0.07746568137512488
-0.9955025326641117 0.06925331363398592 -0.06464275682588927
-0.9982141976260389 0.01222278424213103 -0.0584723798316161
-0.9972731439534597 -0.04486997246448741 -0.0585914833420141
-0.9926588786955888 -0.1020037796397396 -0.06498907205079327
-0.984122389860334 -0.159432045197451 -0.07800349184326175
-0.970984415061882 -0.2177850221784975 -0.09878739707900699
-0.9522983855397049 -0.2763714372285586 -0.1294087075226848
-0.9289946674855616 -0.3288903434053289 -0.1697057742038113
-0.901692424512273 -0.3731466282808094 -0.2184316034365026
-0.8692972900355541 -0.4103732852638952 -0.2755285616384602
-0.8280205320304328 -0.4429806350112987 -0.3437297711008238
-0.7849610688651417 -0.4546330617628132 -0.4208858509361693
-0.7307027397333283 -0.4557503664274015 -0.5082962813630416
0 0 0
0 0 0
0 0 0
0 0 0
0 0 0
0 0 0
0 0 0
0 0 0
0 0 0
0 0 0
0 0 0
0 0 0
0 0 0
0 0 0
0 0 0
0 0 0
-0.6507943781423248 0.5042536646114532 -0.5676221622736942
-0.7024272651135327 0.5400280200506633 -0.4636439094663951
-0.7828756800387556 0.5054350626225805 -0.3628237410583318
-0.8326948548998934 0.479043413893117 -0.2777349207947622
-0.8695621943072726 0.4493482628982781 -0.2048114470966413
-0.9005391038836609 0.4108997359789698 -0.1420940862556401
-0.9260809326786356 0.3665043061395012 -0.08971454570063066
-0.9474693793549427 0.3164969301287406 -0.04616782866718278
-0.9652886604008373 0.2609605252183623 -0.01083542243352749
-0.9794139671544437 0.2012147352682971 0.01615274755893112
-0.9895548006858054 0.1398460902804962 0.03499096273232011
-0.9958508322415421 0.07805976416333378 0.04677385105581802
-0.9984955121324814 0.0161394573707061 0.05240448613498708
-0.9975786100283816 -0.04584187197657499 0.052301430071507
-0.9930853028780785 -0.1078055653818354 0.04647086485376629
-0.9848964623255876 -0.1696714371474116 0.03450452020929756
-0.9727952441665121 -0.2311474501744613 0.01550061949924664
-0.9566399615971377 -0.291039780292328 -0.0116546198058938
-0.9367461772429209 -0.3468136678619939 -0.0471898209880501
-0.9132134567784278 -0.397210664385975 -0.09091133293955256
-0.8853653455872873 -0.4422452502379107 -0.1433434458742732
-0.8517854826252516 -0.4817016337490777 -0.2059733663179192
-0.8119326344408784 -0.5128516857534986 -0.2788342617930745
-0.7585357450042056 -0.5408550627469312 -0.3634547078411934
-0.67362478345657 -0.5766975683160703 -0.4622224202820758
-0.618214962624491 -0.54338095803213 -0.5679325615205408
0 0 0
0 0 0
0 0 0
0 0 0
0 0 0
0 0 0
0 0 0
0 0 0
0 0 0
0 0 0
0 0 0
0 0 0
0 0 0
-0.6292988155297629 0.55007069885324 -0.549003849746015
-0.6926858812700646 0.5740604216471673 -0.4366244406665645
-0.7442316776392841 0.5797838253419381 -0.3316171374794813
-0.796226821789752 0.5573600875477966 -0.2353137927774357
-0.8370030853842559 0.5250504728189145 -0.1541033291329866
-0.8694753978670228 0.4864118606950288 -0.08611639959485982
-0.8967174105522805 0.4416472759202331 -0.02907867405246154
-0.9199015388707821 0.3917223767680544 0.01829585533263272
-0.9397141691551189 0.3371242494150843 0.05731073848259224
-0.9564102323224263 0.2782160394787161 0.08874290329789214
-0.9698807863109218 0.2158367852347409 0.1128970437364938
-0.9798848655085743 0.1513129513995696 0.1301154913374802
-0.9862895667878872 0.08566127986775955 0.1410497627675375
-0.9890477953927109 0.01947036514913913 0.1463057186502869
-0.9881411763363825 -0.04689097201284349 0.1462130376274293
-0.9835599468511624 -0.1131033708171992 0.1407744950618725
-0.975306538111008 -0.1787851591576381 0.1296650437970785
-0.9634225558131161 -0.2433311570576732 0.1122805724758149
-0.9480485814924633 -0.305721267246088 0.08796814129884299
-0.9294348407929095 -0.3646518808132703 0.05639044723712383
-0.9076685122763679 -0.419331964031175 0.0172793450038417
-0.8824294429649912 -0.4694808458100268 -0.03010005990021657
-0.8529249195663018 -0.5147254467720831 -0.08704479322794766
-0.8178412012385503 -0.5542131833172135 -0.1548661260382168
-0.7738953931214316 -0.5877977741189736 -0.2357534670926477
-0.7180179422596816 -0.6119868774274542 -0.3315453158314356
-0.6623270004601307 -0.6087097426331047 -0.436801320608151
-0.5952138806553569 -0.5865928588875319 -0.5492078424215572
0 0 0
0 0 0
0 0 0
0 0 0
0 0 0
0 0 0
0 0 0
0 0 0
0 0 0
0 0 0
0 0 0
-0.5865271473508183 0.5950151830601369 -0.5494932550527099
-0.655326603253011 0.6230673018833005 -0.4270060659905596
-0.7087685547425528 0.6316994082616347 -0.3140111358058071
-0.7528153287969139 0.6229198508549082 -0.2126968268199894
-0.7923991160268018 0.5973520654374952 -0.1235886355515779
-0.8262956967489365 0.5611522895850201 -0.04841001371285371
-0.8553330364421237 0.517884162601855 0.01419122605244454
-0.880697657162437 0.4690203827917659 0.06626852340636018
-0.903041044127931 0.4153774673684807 0.1094460242442925
-0.9226276941370668 0.3574066145887254 0.1449781013103169
-0.939432649168079 0.2954828191653128 0.1736554095188614
-0.9532205915529833 0.2302053128174394 0.1958979780140796
-0.9636690461773476 0.1624371692672732 0.2120286194834926
-0.9704969723495938 0.09303884108453078 0.2224396563338439
-0.973513525689109 0.02272949094226953 0.2274967813879243
-0.972620356301573 -0.04788488272654328 0.2274130174683625
-0.9678084377271979 -0.1182298813664671 0.2221902856024776
-0.9591624898032445 -0.1876815704928388 0.2116198153571205
-0.9468709221082229 -0.2554941327440285 0.1953412526818124
-0.9312237256392639 -0.3207863164298582 0.1729696851991443
-0.9125539336407058 -0.3826919639303658 0.1441949338222156
-0.8910922182720161 -0.440632176377369 0.1086183395012094
-0.8668325553880701 -0.4942825273394106 0.06546834415465444
-0.8394453719435607 -0.5432765451088165 0.01349307441483238
-0.8081696776895929 -0.5869126533642779 -0.04894189804249063
-0.7716528330008136 -0.6238613856184916 -0.1238905842103976
-0.7288876766348091 -0.6507391855584767 -0.2127469558621219
-0.6810411800199568 -0.6615322868545451 -0.3139393963267749
-0.6232254935105258 -0.6553787232051645 -0.4266951059111518
-0.5502476505069056 -0.6293950659251576 -0.5487161143074769
0 0 0
0 0 0
0 0 0
0 0 0
0 0 0
0 0 0
0 0 0
0 0 0
0 0 0
-0.5433464579606659 0.6179919978483125 -0.5682081636311198
-0.6086872643071087 0.6621463241124755 -0.4371064627006373
-0.6615228196720457 0.680900682989372 -0.3142639320026275
-0.7048778667295864 0.6791288137415662 -0.2047712073039563
-0.7418062961687407 0.6616140544175533 -0.1095000546190769
-0.7748334008253549 0.6315576674014565 -0.02771486445656013
-0.8046229972130888 0.5923529938224991 0.04122818290135169
-0.8316643048888261 0.5464045676845612 0.09887634897806793
-0.8563551136445376 0.4950103413064882 0.1470397270620575
-0.8788447200415341 0.4388354304680088 0.1872309350002674
-0.8990468100920357 0.3782476882715146 0.2205527591770038
-0.9166903362656413 0.3135739678017018 0.2476897133800308
-0.9313784788119835 0.2452966217180248 0.2690050121830428
-0.9426684859827974 0.1741085785888542 0.2847144681899192
-0.9501597033978214 0.1008196697551704 0.2950117493074165
-0.9535554386986127 0.02626063550614308 0.3000706655958043
-0.9526938982621505 -0.04874884951365907 0.2999964764545764
-0.9475617242583089 -0.123388231932024 0.2947916602302529
-0.9382990966351927 -0.1968147278677035 0.284356762092872
-0.9251941094393149 -0.2681599134674872 0.2685258286792951
-0.9086536355362194 -0.3365747859024083 0.2471153255497491
-0.8891359177137974 -0.4013375654477108 0.219921527804231
-0.8670522576700878 -0.4619556921429396 0.1865940003481908
-0.8426764070721239 -0.5181185810533213 0.1464568500661837
-0.8160731372086117 -0.5695091752778979 0.09840698146362509
-0.7870304407679122 -0.6155552989332774 0.0409238226443829
-0.7550277943549942 -0.6551025880471509 -0.0278141849666127
-0.7193903665807496 -0.6859403381205085 -0.1093771137392839
-0.6792328695231875 -0.704875398031553 -0.2044342980254424
-0.6318186366870874 -0.7088074212107228 -0.3136833594111656
-0.5741967332337219 -0.6927692472625366 -0.4363128253799327
-0.5044069713010465 -0.6509243462562678 -0.5673368512213488
0 0 0
0 0 0
0 0 0
0 0 0
0 0 0
0 0 0
0 0 0
0 0 0
-0.5767065290829246 0.6734174742199481 -0.4625132265442263
-0.6120058842718988 0.7178554030742594 -0.3318620464796527
-0.650769820571832 0.728763361209233 -0.2130788680088329
-0.6859813776586969 0.7192991341491952 -0.1097192103402768
-0.7176915702361626 0.6960348732501664 -0.02131349881121609
-0.7470353261654273 0.6626018559870172 0.05382380424564127
-0.7746663577713819 0.621380062272183 0.1173833563493493
-0.8008616616884695 0.5738864931593245 0.1710990701519887
-0.8256515765871958 0.5209566114711084 0.2165725814677798
-0.8488610904562981 0.4630056713765379 0.2550697892391516
-0.8701445914554798 0.400270184959665 0.2874581169372872
-0.8890257889929087 0.3330063433379621 0.3142290912729351
-0.904946045566502 0.2616356393227058 0.3355882102365166
-0.9173287197417066 0.1868043072773528 0.3515852254001424
-0.9256543830005485 0.1093527657216728 0.362223599260035
-0.9295284902726507 0.03024966167576947 0.36750747440011
-0.9287291525262499 -0.0494645782809075 0.3674444403489663
-0.9232336579433864 -0.1287172306121331 0.3620379640093236
-0.9132249062445876 -0.2064387613888323 0.3512880704077613
-0.899075497565501 -0.2816103884989526 0.3351996998310335
-0.8813047707764154 -0.3533331693311602 0.3137794965531159
-0.8605090856275506 -0.4209065290291534 0.2869874690174936
-0.8372790922357857 -0.4838692251879111 0.2546257933141663
-0.8121241631879991 -0.5419493643094637 0.2162064524725374
-0.7854086833361138 -0.5949286027144287 0.1708600532965186
-0.7572913592226979 -0.6424540798709093 0.1173139058418119
-0.7276655951129963 -0.683806654022691 0.05395592278091221
-0.6960965853065672 -0.7176420404355767 -0.02096296076413063
-0.6616852619683271 -0.7417936833472312 -0.109154685836447
-0.6230030453201795 -0.752842023791134 -0.2123584063225461
-0.5798809778868496 -0.744301658028666 -0.3312900441316786
-0.5401378568447469 -0.7025460789883337 -0.4633358420209699
0 0 0
0 0 0
0 0 0
0 0 0
0 0 0
0 0 0
0 0 0
-0.4557753648502624 0.7304860490039879 -0.508585242615388
-0.540898172095726 0.7583566476307058 -0.3637641576871192
-0.5878544317967944 0.7737533272456583 -0.2360782827647232
-0.623929631498496 0.7715436331263524 -0.1242265556164976
-0.6551805128333429 0.7549473674828828 -0.02815968632819585
-0.6838923693842179 0.7276113106313377 0.05360044532825027
-0.7112840468664592 0.6920261184344931 0.1231862657838152
-0.7379332274779616 0.6496919912476867 0.1826331522275577
-0.7639830802050194 0.6014301874709197 0.233691212413186
-0.7892834961613022 0.5476157174256017 0.2777563477507483
-0.8134734589007659 0.4883809437964524 0.3158242951397341
-0.8360317928226302 0.4237970647571832 0.3484923088003151
-0.8563190982951497 0.3540297636542316 0.3760060216830441
-0.8736259157542405 0.2794581351567276 0.3983477250057896
-0.88723628303681 0.2007362275562341 0.4153513512792714
-0.8965047601133016 0.1187887673865527 0.4268119537184665
-0.9009338703363534 0.03475933866586896 0.4325620760726364
-0.9002370621406763 -0.05006393190979897 0.4325122364396807
-0.8943772279212723 -0.1343310084371852 0.4266667954600041
-0.8835753912323021 -0.2167173241849406 0.4151242337021571
-0.8682870547746431 -0.2960147101155483 0.3980614046927722
-0.8491476287017146 -0.3712191073045412 0.37569226641265
-0.8268953923297491 -0.4415966732991787 0.3481901610828886
-0.8022876488611788 -0.5067007146181595 0.3155771130646961
-0.7760245610067826 -0.5663211159610714 0.2776081308802688
-0.7486831857695355 -0.6203755247204888 0.2336828955524055
-0.7206524912588302 -0.6687632864282618 0.1827994900652399
-0.6920550522252854 -0.7111922301836952 0.123553293828204
-0.6626358844298429 -0.7469791851720665 0.05418285324301846
-0.6315986631008893 -0.7748125002107472 -0.0273627170861994
-0.5974026021745644 -0.7924148006954489 -0.1232433144387566
-0.5574231589785084 -0.7962820333399709 -0.2349773291498174
-0.5055141001455596 -0.7829738731077214 -0.3625015980443648
-0.4151535695101038 -0.7563565091561378 -0.5055416350610105
0 0 0
0 0 0
0 0 0
0 0 0
0 0 0
-0.380068006344243 0.7278634083442433 -0.5707566638656209
-0.4546976857111631 0.7847631066957615 -0.421185091115686
-0.5129313771037731 0.8117735904773891 -0.2791505690230172
-0.5543062735603778 0.8177159404197367 -0.1551940587621597
-0.5870173027322582 0.8080731445884057 -0.04927960316347121
-0.615669756332709 0.7869589349392353 0.04057568060459841
-0.642576748897722 0.7572430810241343 0.1169531445370724
-0.6688927788871154 0.7206276380396217 0.1824232924988148
-0.6951090280750091 0.6779522558566772 0.2391739489732484
-0.7212877303014222 0.6295074744274161 0.2889019725731173
-0.7471922064706075 0.5752731089403627 0.3328132460099418
-0.7723632086851107 0.5151032031737526 0.3716500557645314
-0.7961677486438983 0.4488827624768245 0.405735359034039
-0.8178411583832345 0.37666538880942 0.4350391068943312
-0.8365383208647228 0.2987852287980538 0.4592722773877432
-0.8514034327199267 0.2159257726406817 0.4780044512996185
-0.8616573334555478 0.1291308485137834 0.4907869840005791
-0.866690447115261 0.0397572332901238 0.4972595210554174
-0.8661435820387717 -0.050619862387764 0.4972252254510914
-0.8599599176096934 -0.1403326119017309 0.4906890034854732
-0.8483970312804824 -0.2277604420684687 0.4778573619221942
-0.8319957475197035 -0.3114651884951111 0.4590996759581017
-0.8115117979402573 -0.3903010294051915 0.4348720596325065
-0.7878248397525872 -0.4634788672525416 0.4056098636363651
-0.7618434121543172 -0.5305705730372049 0.3716039321428646
-0.7344200345678535 -0.5914525130180086 0.3328830690648508
-0.7062794272219214 -0.6462032955274594 0.2891205138562895
-0.6779516182918116 -0.694973836032032 0.2395683002536764
-0.6496945693951944 -0.7378366963336788 0.1830135952376075
-0.6213865092970063 -0.7746052692465131 0.117751785206077
-0.5923648938202605 -0.8045957823920705 0.04158677104805071
-0.5611720459162927 -0.8263027328104722 -0.04805963620406427
-0.5250811861192324 -0.8370467483045309 -0.1537611431293055
-0.4790887502117494 -0.8327791075714009 -0.2774039066291684
-0.4149722321363203 -0.8077820269286257 -0.4186719999317845
-0.3345558842597649 -0.7527231097703333 -0.5669923106399638
0 0 0
0 0 0
0 0 0
0 0 0
-0.40671608194001 0.7683295875255588 -0.4942182449325108
-0.4430833233742548 0.8278400361871847 -0.3440320378005885
-0.4818174766827198 0.8516431602721992 -0.206290685016743
-0.5148542936779109 0.8528136388064249 -0.08737249994800005
-0.5434174043876179 0.8393595563768841 0.01315521673800953
-0.5696609138805304 0.8160093916043568 0.09805669793688367
-0.5950901291477718 0.785365894849926 0.1704938397639709
-0.6205458464300917 0.7486624082966734 0.2332969157142574
-0.6463815817903819 0.7062836817038932 0.2887112946889276
-0.6725955455283007 0.658124835818638 0.3383591769321146
-0.6989107324346637 0.6038376082770953 0.3832804859601364
-0.7248228109641649 0.5430129347729937 0.423991562858539
-0.7496337205520971 0.4753350787639937 0.460549506467706
-0.7724874681196375 0.4007222388197151 0.4926304892243543
-0.7924224002376135 0.3194490729296097 0.5196335530025671
-0.8084487677866988 0.2322323831762539 0.5408130084127462
-0.819650562261061 0.1402575524543482 0.5554284605281238
-0.8252986368344828 0.04513156463164666 0.5628901330748687
-0.8249531887536616 -0.0512364865585529 0.5628739279894746
-0.8185319317540517 -0.1468100689297047 0.5553848038611023
-0.8063267598539423 -0.23962425540503 0.5407562968334506
-0.7889644013845007 -0.3279716166195757 0.5195861738344638
-0.7673211006395437 -0.4105403657883652 0.4926204792451018
-0.7424121946539213 -0.4864819837953247 0.4606076558978506
-0.7152800765370563 -0.5554029540195716 0.4241485244292097
-0.6868974542343365 -0.6172926614990373 0.3835644110522011
-0.6580908162114661 -0.6724098547936115 0.3387941333532208
-0.6294776652657452 -0.7211475917090958 0.2893164701563963
-0.6014038412481051 -0.7638827892092755 0.2340865311842627
-0.5738639200258009 -0.8007968444440585 0.1714777397246044
-0.546386986356599 -0.8316323634664297 0.09924148918367395
-0.5178735729646308 -0.8553334922949246 0.01454576857420622
-0.4864108876240211 -0.8695101110365144 -0.08577071298572521
-0.4493598145584625 -0.8696353063704761 -0.2044754043250958
-0.4052346455222473 -0.8477931554131906 -0.3420988858546656
-0.3630721196460597 -0.7906294089985695 -0.4930352660432005
0 0 0
0 0 0
0 0 0
-0.2898725843070409 0.7594888764718269 -0.5823663206116222
-0.3687544143258686 0.8271266626790416 -0.4241245875926267
-0.4105107050620822 0.8691362813480255 -0.2758316252244432
-0.4423958745575182 0.8852389878987745 -0.143658708327903
-0.4696449665921041 0.8823309491993879 -0.03042534206230014
-0.4944599773069752 0.8667567125521183 0.06513165196300207
-0.5183089944302851 0.8426203502998881 0.1461052071391028
-0.5421522821064748 0.8120874424495625 0.2158353280222422
-0.56653604213987 0.7760089878898123 0.2772128490361147
-0.5916789838714607 0.7344294865563487 0.3324594852330325
-0.6175303668963269 0.6869376401496152 0.3831095463526915
-0.6438006605626195 0.6329067009163815 0.4300579233013573
-0.6699763796099322 0.5716773143437229 0.4736208388885729
-0.695332352913244 0.5027199530584444 0.5136005916946029
-0.7189555482171558 0.4257928351339823 0.5493663451981142
-0.739794062069037 0.3410897348750469 0.5799677046959283
-0.7567404402674284 0.2493540368203125 0.6042900548455784
-0.7687484940781307 0.1519264117290682 0.621244008640514
-0.7749689190972991 0.05069827191212212 0.6299625859194241
-0.7748765454127499 -0.05203769791654386 0.6299669970440899
-0.7683575143571051 -0.1538203598235799 0.62126164136756
-0.7557321110722578 -0.2522896524973607 0.6043334406906743
-0.7377067966876536 -0.345433258457404 0.580055640496962
-0.7152695857686739 -0.4317589889614017 0.5495212417416978
-0.6895569601616437 -0.5103663733378498 0.5138456613211824
-0.6617225222926288 -0.5809203090144182 0.4739777400524981
-0.6328285733676704 -0.643551706804526 0.4305452326973554
-0.6037677328574056 -0.698717759802004 0.3837421229126362
-0.5752091947811366 -0.747047351113572 0.3332486120502696
-0.5475566881764214 -0.7891798077669691 0.2781670437815347
-0.5209024136080783 -0.8255836007122349 0.2169617333363162
-0.4949617621687467 -0.8563193134011103 0.147411286837404
-0.4689788877054276 -0.8806927451942348 0.06662650710356958
-0.4416148398835519 -0.8967445881237053 -0.0287311131958043
-0.4108785669231171 -0.9006020629903111 -0.141755872473774
-0.3740682442611519 -0.8860905201210769 -0.2737088577063922
-0.3259542314939763 -0.8461646830272938 -0.4216149524963389
-0.2406825939088431 -0.780053893892497 -0.5775706117977812
0 0 0
0 0 0
-0.3181485952986595 0.7896528932637235 -0.5246234644673451
-0.346195041464172 0.8641557226744366 -0.3652175793066944
-0.3733172382780475 0.9015492067702009 -0.2187310388958837
-0.3973948734081758 0.9131023371775591 -0.09122190761970658
-0.4195309827471997 0.9075825961385084 0.01695835197337412
-0.4408467517375071 0.8910267396842499 0.1082843047266953
-0.4621862948550206 0.867004953867082 0.1862424194917104
-0.4841161216684166 0.8372501614368527 0.2542513479112632
-0.5069640123038499 0.8022795981548213 0.3151744542524341
-0.5308502931980326 0.7618608948822767 0.3711683486785196
-0.5556991449440079 0.7153297024536684 0.4236766185382951
-0.5812332106410866 0.6618125478863802 0.4734681682098505
-0.6069605831110315 0.6004074447710991 0.5206820054629846
-0.6321657300634229 0.5303585407544612 0.5648772503669955
-0.6559181718465197 0.4512399193929222 0.6051065087964168
-0.6771135986579524 0.3631400537004757 0.6400363082754699
-0.6945584823928106 0.2668157235812683 0.6681301401568404
-0.7070987726046979 0.1637693561135765 0.6878887437508145
-0.7137768458721536 0.05620572267173673 0.6981142678929766
-0.7139841944914435 -0.05315193799472685 0.6981414194157286
-0.7075693438263567 -0.1613639184363637 0.6879733348786135
-0.6948685594119484 -0.2656281007550766 0.6682809268788193
-0.6766501532247692 -0.3635989103493668 0.6402658842493868
-0.6539906671788394 -0.4535989585892505 0.605428932253591
-0.6281191864553821 -0.5346920802467358 0.5653058171715964
-0.6002676519043401 -0.6066303479251683 0.5212277496962709
-0.5715530633016338 -0.6697156317240901 0.4741392922495679
-0.542900263105774 -0.7246220475685337 0.4244787303237539
-0.5149994977274432 -0.7722131674036014 0.3721052827211379
-0.4882847728460031 -0.8133659934910095 0.3162494920772362
-0.4629165689814366 -0.8487897424954011 0.2554686344681965
-0.4387536830909099 -0.8788051001273476 0.1876081063395807
-0.4153039314192929 -0.9030311135012451 0.1098064323998368
-0.3916583018191633 -0.9199218359926133 0.01864377322614632
-0.3664511031152944 -0.9261346623736388 -0.08937659747187306
-0.3379722229565117 -0.9158541978542993 -0.2167622309870674
-0.3048641909666489 -0.8803955083287447 -0.3632651565741222
-0.2704245095931434 -0.8080995472338297 -0.523302690965551
0 0 0
0 0 0
-0.299277355445867 0.829978362442223 -0.4707111453907303
-0.3117356710794312 0.8973325029569125 -0.3124343939353328
-0.3290919297473876 0.9288696105367814 -0.1699992599877661
-0.3470300979150117 0.9366506591369207 -0.04749372463251016
-0.364885258742383 0.9293622975053208 0.05607555553122052
-0.3829439386631123 0.9125002297955686 0.1438654595940811
-0.4016094735782895 0.8890994637907993 0.2195722528442094
-0.4211994352314204 0.8604907359079406 0.2866125070148597
-0.4419114043373429 0.8268983151765027 0.3477836785630662
-0.4638160661999344 0.7878544081584434 0.4051667413301915
-0.4868422044804238 0.7424758420872025 0.4601242135049403
-0.5107502064168831 0.6896639000335019 0.5133204960214335
-0.5351003060496929 0.6282798534652208 0.5647407265243448
-0.5592261114664808 0.557332310496079 0.6137156116078364
-0.582227751893207 0.4761911657804635 0.6589786176789232
-0.6030013058183303 0.3848165589797487 0.6987886956128965
-0.6203186779174309 0.2839624858529483 0.7311429712819402
-0.6329614533826998 0.1752927157102533 0.7540770931082471
-0.6398934517783125 0.06134503059491274 0.7660111993910695
-0.6404354467551039 -0.05469022934117769 0.7660622803363961
-0.6343931935824854 -0.1693521619556109 0.7542314771853367
-0.6220976686861134 -0.2793620015649018 0.7314036933848185
-0.6043448239767144 -0.3820251319314401 0.6991595900116931
-0.5822566241771289 -0.4754849213407472 0.6594628975002584
-0.5571072165190201 -0.5587923879513976 0.6143147535832133
-0.530159371260534 -0.6318169689545794 0.5654541173302061
-0.5025412066158848 -0.6950585400009002 0.5141458563723597
-0.4751725356082744 -0.749423844167376 0.461058524698324
-0.4487334743418142 -0.796011206147928 0.406207371538288
-0.4236591923021735 -0.8359193176605501 0.3489294816145371
-0.400142772949556 -0.8700688097842505 0.2878645992421736
-0.3781304487890766 -0.8990025613532194 0.220933832580982
-0.3572997359594139 -0.9226122478813604 0.1453393915724006
-0.3370282294081377 -0.9397274060696874 0.05765739209808007
-0.3164123749442688 -0.9475139164949992 -0.04583216152915615
-0.2945472876375952 -0.940691274229128 -0.1683502953205451
-0.2717130052243565 -0.9107165286597475 -0.3110746650209361
-0.2532063606589954 -0.8452904026100501 -0.4705004507725424
0 0 0
0 0 0
-0.2498527229442764 0.8704124555431327 -0.4242119447548643
-0.2619633902224102 0.9272474224248375 -0.2675582175708228
-0.276601675991237 0.9521926052075657 -0.1296948550516451
-0.2912868774352629 0.9565611055507949 -0.01195016240285148
-0.3059880692972556 0.9479909260932522 0.08766131126440665
-0.3210753307092205 0.9311839671016959 0.172647187705771
-0.336888226860854 0.9086309323051717 0.2467714559279164
-0.353672963082025 0.8813006514349542 0.3134080358974626
-0.3715868995392958 0.8491659107983722 0.3752871327780151
-0.3906982177289088 0.8115585293256807 0.4344279642727796
-0.4109681493787279 0.7674044602616581 0.4921336958253682
-0.4322184405589664 0.7153996152721518 0.5489905373585522
-0.454091096089805 0.6541786830641454 0.6048566169567955
-0.4760107607318826 0.5825141542697244 0.6588558383613834
-0.4971643849614961 0.4995614885720057 0.7094123578438555
-0.516516484143506 0.4051365384223494 0.7543706693948186
-0.5328773705048596 0.2999753889193451 0.7912373057727456
-0.5450320036227948 0.1858959472629396 0.8175468254590286
-0.5519171123504474 0.06577424296417943 0.8313009383233197
-0.5528090936607846 -0.05671595770685677 0.8313756107243795
-0.5474678819385347 -0.1775731158722401 0.8177693481447919
-0.5361879482745711 -0.2930301057369458 0.7916033358045552
-0.5197396444604051 -0.4000463777268374 0.7548732328303922
-0.4992243105328561 -0.4966038526904613 0.7100420419003258
-0.4758921005254272 -0.5817670334533016 0.6596012639803239
-0.4509727586884382 -0.6555490160238299 0.605705422223648
-0.425552105271386 -0.7186665543961557 0.5499307131734399
-0.4005035339976302 -0.7722662441843193 0.4931549121207795
-0.3764654149902544 -0.8176758828462046 0.4355226078263841
-0.3538462076432244 -0.8561995009892841 0.3764508943304668
-0.3328376777527499 -0.8889436812688584 0.3146398128023949
-0.3134192480869958 -0.9166398725419354 0.2480720036499204
-0.2953415111162372 -0.9394104670424501 0.1740154194968435
-0.2780878717739177 -0.956415570661877 0.08908642863965811
-0.2608453456898247 -0.9653234560161095 -0.01050385153500833
-0.2426167041412053 -0.9615984604772488 -0.1283181034750861
-0.222944692212187 -0.9377043747625181 -0.2664698289969194
-0.2050195572109397 -0.8821538382924041 -0.4239947956602869
0 0 0
-0.08173826041651257 0.8284163520009019 -0.5541165983090557
-0.1682265394376771 0.9063960648073378 -0.3874867805881836
-0.2003727587105852 0.9514988470049682 -0.2334538535019824
-0.218041876475071 0.9708985209559656 -0.09906463601481477
-0.2314234413202874 0.9727341293574362 0.015215268341552
-0.2436298381202459 0.9633815825914797 0.111984053780162
-0.2558188659653314 0.9468476820164972 0.195028651423829
-0.2685138053029634 0.9251885256312286 0.2681912161164772
-0.2819962583884363 0.899089777702946 0.334836798881169