# OOMMF: rectangular mesh v1.0
# Segment count: 1
# Begin: Segment
# Begin: Header
# Title: 
# Desc: time = 1.2e-10
# Desc: stepsize = 9.798575280492466e-14
# Desc: step = 766
# meshunit: m
# valueunit: (none)
# valuemultiplier: 384000.0000000001
# xmin: 0
# ymin: 0
# zmin: 0
# xmax: 9.357999999999999e-08
# ymax: 9.357999999999999e-08
# zmax: 2.3395e-08
# ValueRangeMaxMag: 1
# ValueRangeMinMag: 0
# meshtype: rectangular
# xbase: 1.16975e-09
# ybase: 1.16975e-09
# zbase: 1.16975e-09
# xstepsize: 2.3395e-09
# ystepsize: 2.3395e-09
# zstepsize: 2.3395e-09
# xnodes: 40
# ynodes: 40
# znodes: 10
# End: Header
# Begin: Data Text
0 0 0
0 0 0
0 0 0
0 0 0
0 0 0
0 0 0
0 0 0
0 0 0
0 0 0
0 0 0
0 0 0
0 0 0
0 0 0
0 0 0
0 0 0
0 0 0
-0.8519948215687669 0.172167691088354 -0.4944321087523638
-0.8676805818032746 0.1846958349256774 -0.4615385753354069
-0.8861773324173586 0.1596443986563904 -0.4349751734148662
-0.900659099020947 0.1183954261336819 -0.4180857692165557
-0.9087577035130421 0.07159177175373836 -0.4111375129112664
-0.9100407461312449 0.02735745987348341 -0.4136150502220115
-0.905725259006094 -0.003807676286030341 -0.423848152997797
-0.9002111912902734 -0.001190381958382373 -0.4354519423157272
0 0 0
0 0 0
0 0 0
0 0 0
0 0 0
0 0 0
0 0 0
0 0 0
0 0 0
0 0 0
0 0 0
0 0 0
0 0 0
0 0 0
0 0 0
0 0 0
0 0 0
0 0 0
0 0 0
0 0 0
0 0 0
0 0 0
0 0 0
0 0 0
0 0 0
0 0 0
0 0 0
0 0 0
-0.7483603921451374 0.3770975602986716 -0.5456685381118884
-0.7806200844934753 0.4050891439860984 -0.4759570034257386
-0.8240811958539936 0.3872125454264837 -0.4134690161356646
-0.8688317172602787 0.3393244033844303 -0.3605418094345716
-0.9117457370687684 0.2591917780169778 -0.3186523703745593
-0.9329021315122068 0.2162839510144912 -0.2879494149213394
-0.9489647651386613 0.1731795504700468 -0.2635805717884325
-0.9609380405444926 0.1247675747077353 -0.2470448026898357
-0.9681963899013406 0.07313928550193001 -0.2392621898634999
-0.9704892486153959 0.02151999837510255 -0.2401822391265829
-0.9680873173347863 -0.0280879442252014 -0.249034161119992
-0.9606176741259652 -0.08068838227317462 -0.2659004872559624
-0.9372875117403956 -0.1711730609861298 -0.3036311965660572
-0.90755619922162 -0.2323302672886803 -0.3498062208651767
-0.875865398323852 -0.2658369907341143 -0.402728814931872
-0.8510885177455907 -0.255971914321699 -0.458395804998363
0 0 0
0 0 0
0 0 0
0 0 0
0 0 0
0 0 0
0 0 0
0 0 0
0 0 0
0 0 0
0 0 0
0 0 0
0 0 0
0 0 0
0 0 0
0 0 0
0 0 0
0 0 0
0 0 0
0 0 0
0 0 0
0 0 0
-0.6983108439992038 0.4590606255486413 -0.5492042490950058
-0.739916969196921 0.4886483737422443 -0.4623263409470654
-0.8022867968208437 0.4558034603351339 -0.3854595973555044
-0.8415657685502509 0.4367092424918666 -0.3178869212890094
-0.8775219191932013 0.4048457446344237 -0.2570120705081356
-0.9112785668435948 0.3572888667684181 -0.2047340696973093
-0.9407439699687923 0.2972847969628444 -0.1631641273752162
-0.9609285904588881 0.2429671128511221 -0.1326017575731331
-0.9757442626620757 0.1894747790795211 -0.1096468967860384
-0.9865283436745862 0.133968949679743 -0.09388369213225073
-0.9933979248583888 0.07633092189131212 -0.08563967100747591
-0.9962239486549966 0.01730956144017677 -0.08507774802493746
-0.9947885524295731 -0.04318248010833615 -0.09236346337576976
-0.9881952539366424 -0.1077131271532926 -0.1089404531657206
-0.9736617739243427 -0.1801728579901752 -0.1397157515892661
-0.9530214357069936 -0.2422368214441204 -0.1818556169592493
-0.9281189239043224 -0.2907979123039601 -0.2324474936202585
-0.8985342836932905 -0.3290603099748997 -0.2904401029937283
-0.8493599689331008 -0.3820445701520455 -0.3641834559549624
-0.8144107525066274 -0.3745638763859642 -0.443212171209578
0 0 0
0 0 0
0 0 0
0 0 0
0 0 0
0 0 0
0 0 0
0 0 0
0 0 0
0 0 0
0 0 0
0 0 0
0 0 0
0 0 0
0 0 0
0 0 0
0 0 0
0 0 0
0 0 0
-0.6892119836772597 0.528903089123838 -0.4952255686764545
-0.7449777279693338 0.5334145636228869 -0.4005959162855433
-0.7885304614208796 0.5278836925319239 -0.3155289504470794
-0.8313641595153657 0.5013742156941527 -0.2397030039661205
-0.8656910632699343 0.4691720794529323 -0.1745180301183266
-0.8956671191303164 0.428876033387894 -0.1176680062475147
-0.9226242349625321 0.379438237038483 -0.06921809974948809
-0.9459725319885595 0.3228472400326585 -0.03009365923991168
-0.964320557108904 0.2647371754773005 -0.0003017573088544411
-0.9784138664782505 0.2054905697330893 0.02190734200787165
-0.9888102847676088 0.1444313938126555 0.03733354013662947
-0.9956205571122466 0.08136023472984327 0.04604582999799001
-0.9987213862874288 0.01640834234470297 0.0478158851597958
-0.9978387791706992 -0.05047679652193462 0.04206974917932028
-0.9924443344242524 -0.119593585861558 0.02741563951426804
-0.9818025584765407 -0.1898971872748742 0.00167165606795242
-0.9662519770173686 -0.2552542810792703 -0.03467519143033762
-0.9461596862032113 -0.3135564274440434 -0.08040034211599043
-0.9206904688190142 -0.3658836898991126 -0.1358609071500452
-0.8868849285355068 -0.4142413959262066 -0.2045463014519601
-0.8503808039155236 -0.4431421827152725 -0.2836855552021132
-0.8029843081584612 -0.4620954127693433 -0.3764093919508478
0 0 0
0 0 0
0 0 0
0 0 0
0 0 0
0 0 0
0 0 0
0 0 0
0 0 0
0 0 0
0 0 0
0 0 0
0 0 0
0 0 0
0 0 0
0 0 0
-0.5676835151388538 0.5999059135725742 -0.5637803841038187
-0.6220258263610376 0.6392820412507965 -0.4521087734982399
-0.7078656976086753 0.6127116732764908 -0.3514406914113753
-0.7612356215832039 0.593426264424441 -0.2614681569982962
-0.8011067706625068 0.5702442955483398 -0.1817948992498604
-0.8354918690821009 0.5380387023768363 -0.1116588171276542
-0.8649253943554265 0.4992869005911066 -0.05115323154245284
-0.890938262437651 0.4541232336345897 0.001049379741790664
-0.9143022001501829 0.4024727155371033 0.04546647169864722
-0.9348932815684787 0.3453313332417855 0.08198062185401875
-0.9521739509389644 0.2847787228707796 0.1107512805947167
-0.9660593472409015 0.2216746275454304 0.132626155456144
-0.9765515682379324 0.156167681162385 0.1481846480995851
-0.9835533956397829 0.08834878153050865 0.1575347921175702
-0.9868782735714785 0.01843179118785835 0.1604105427526029
-0.9862922018600949 -0.05325843422630754 0.156176924459817
-0.9815436674055241 -0.1260977162235657 0.1437755018746734
-0.9724600976670703 -0.1985578357359622 0.1220497616269767
-0.9591509633754427 -0.2679128292160687 0.09084131987923211
-0.9416734203699663 -0.3327421643716278 0.05033707796458595
-0.9195943242150091 -0.3928692700191112 -0.0001246843650758819
-0.8919173195757527 -0.4478930721085814 -0.06225183529777475
-0.8580999928162669 -0.4950821808039869 -0.1362278847339643
-0.8118221283187815 -0.5390465768662176 -0.2244406824547997
-0.7369069707368214 -0.5894588128513315 -0.3309175492949559
-0.6868633381851807 -0.5751257929106054 -0.4443524243053669
0 0 0
0 0 0
0 0 0
0 0 0
0 0 0
0 0 0
0 0 0
0 0 0
0 0 0
0 0 0
0 0 0
0 0 0
0 0 0
-0.5393009400007288 0.633591752941413 -0.5547215398007878
-0.6056653472903518 0.6641214479872173 -0.4383060453781337
-0.6592976309495958 0.6763278018170353 -0.3284925239843163
-0.7139995545491867 0.6617974246888917 -0.228536222027741
-0.7569895773177837 0.6377633737621436 -0.1422134273539979
-0.7915447256904181 0.6073395122125305 -0.06779132789026511
-0.8212640528527921 0.5705386485716381 -0.003317525863412912
-0.8476063089190887 0.5280331751326508 0.05238808108614884
-0.8714852493007341 0.4800074542386285 0.1005301155206123
-0.8933015620579355 0.4265021104673181 0.141803628274368
-0.9129555100326524 0.3679478612065912 0.1764273452005495
-0.9300537158530483 0.3052054562643052 0.2045720291106136
-0.9442297135324635 0.238924078313086 0.2265955270623048
-0.9551677056300149 0.1694993570359098 0.2427439434587521
-0.9625671257283805 0.09728434471519241 0.2529827755803524
-0.9661475688350022 0.02274493746602215 0.2569854919132215
-0.9656833051681731 -0.05344893449071483 0.2541632654835855
-0.961047751872521 -0.1302976237873861 0.2437411492877912
-0.9522571994809326 -0.2063455355868805 0.2250061020952411
-0.9394669856747233 -0.2798854615822521 0.1976509833573775
-0.9228153578049905 -0.3497707582296432 0.1614689818098422
-0.902228902313445 -0.4154259080350928 0.1157770390167841
-0.87729341674062 -0.4762766692924837 0.05930257356326341
-0.8470707179749379 -0.5313986320625169 -0.009310885645744877
-0.8088984937803683 -0.5806215205451422 -0.09253040927013123
-0.7600377981631194 -0.6206740632901561 -0.1926298328978257
-0.7104122789092138 -0.6347717765842412 -0.3039394440132817
-0.6490367090871507 -0.6305089651687207 -0.4256874382680201
0 0 0
0 0 0
0 0 0
0 0 0
0 0 0
0 0 0
0 0 0
0 0 0
0 0 0
0 0 0
0 0 0
-0.490958570741437 0.6653085166952136 -0.5624271147698512
-0.5626719139961766 0.7010453503304183 -0.4381047066398395
-0.6177164676552692 0.7175875579678064 -0.3217055520772006
-0.6626812053183585 0.7170147035246872 -0.2162025324717818
-0.7031235178267395 0.7004218720633353 -0.1225827060161523
-0.7377627945571474 0.6737537794063029 -0.04197503666407641
-0.7676957251846754 0.6402392337554653 0.02714769038775272
-0.7944928163640843 0.6010319307642236 0.08684343928987655
-0.8191257974560688 0.5565867862934776 0.1387230235593833
-0.8421053708375886 0.5069534474730071 0.1840020285261
-0.8635598617409123 0.4520586957003648 0.2233994199448616
-0.8832816763585515 0.3919972488072488 0.2571996056310627
-0.9008307060763847 0.3271149578882049 0.2854817740517238
-0.9156861089606547 0.2578448750529904 0.3082774241902951
-0.9273321646325883 0.1846473133109214 0.3255156311529381
-0.9352985797936914 0.1080733913466178 0.3369520866810947
-0.939197263877514 0.02885017094793101 0.3421639477812727
-0.9387676921250769 -0.05205484302211458 0.3405958213779187
-0.9339201462713728 -0.1334031105318773 0.3316576103285983
-0.9247555795745555 -0.2137351660341239 0.3148720324927139
-0.9115308851638942 -0.291598241089293 0.2899688107123892
-0.8945608191136319 -0.365882956631958 0.2566916495583831
-0.87409326349024 -0.4358461220644428 0.2144740651043105
-0.8501785700675768 -0.5008590350938121 0.1622856307956584
-0.822493590395445 -0.5601509927767583 0.09866690959800536
-0.7901506451416935 -0.612531677821947 0.0216079070433806
-0.7523392879610489 -0.6549994199947056 -0.07043689088013992
-0.7097129233828692 -0.6820848953980959 -0.1762604943063235
-0.6574716015991677 -0.6928855999360043 -0.2960416161487228
-0.5901361120425823 -0.6841654751002627 -0.4285521811216178
0 0 0
0 0 0
0 0 0
0 0 0
0 0 0
0 0 0
0 0 0
0 0 0
0 0 0
-0.4441483614188866 0.675088487385596 -0.5890566757522959
-0.5121750773197702 0.7273569915692855 -0.4567586857277757
-0.5662580050484656 0.754627642939784 -0.3314950862828544
-0.6097683865955503 0.7618177511730936 -0.2186692221283765
-0.6461645740200621 0.7538061977388113 -0.1193631414299552
-0.6783923197733345 0.7339628797903194 -0.03289911187941442
-0.7073720596282248 0.7056162386288836 0.04159919519111846
-0.7339194862195838 0.6709335797663112 0.1058787952762235
-0.7588034229478399 0.630881677336409 0.1618816682760602
-0.782517283297637 0.5857138867482727 0.2112011936773003
-0.8052552017750664 0.535310048010431 0.2549651201895394
-0.8269325560985774 0.4794364927355295 0.293808095698071
-0.8472121991590785 0.4179578453987094 0.3279370809556393
-0.8655591762859135 0.3509476177988499 0.3572717199955269
-0.8813286175549458 0.2786857986046435 0.3815679409158728
-0.8938519585342581 0.2016527203596231 0.4004558110404116
-0.9025094058940896 0.1205566310262682 0.4134523805570511
-0.9067968062271625 0.03637218622621592 0.4199959717489471
-0.9063890381060499 -0.04964899806064416 0.4195162554571196
-0.9011903766631663 -0.136020356980591 0.4115268733589243
-0.8913511430840575 -0.2211457534154835 0.3957116317080425
-0.8772356107325384 -0.3035257910008884 0.371927113101471
-0.8593435576256609 -0.38196036340408 0.3400513648781528
-0.8382071739897324 -0.455583171222354 0.2997544120961839
-0.8142716181931671 -0.523732547990543 0.250331679937666
-0.7877630283953264 -0.5857365244543424 0.1906361324974128
-0.7585839943754198 -0.6405966383156049 0.1191061310604066
-0.7263364647734409 -0.6864871932270631 0.03421510595699054
-0.6901758932800974 -0.720718414307986 -0.06497848576568516
-0.6474453889462076 -0.7405884807966714 -0.1798420708387547
-0.5949643436541666 -0.7413341034416017 -0.3105497977049783
-0.529911750290197 -0.7168528026621995 -0.4531176405964885
0 0 0
0 0 0
0 0 0
0 0 0
0 0 0
0 0 0
0 0 0
0 0 0
-0.4791301299549015 0.7264225941340915 -0.4926911134787142
-0.5147932614181342 0.7789000340649741 -0.3581935718742899
-0.5530392587913417 0.7988861588730884 -0.2364920366450525
-0.5867977318417011 0.799252028645838 -0.1298638387348338
-0.6163701089551085 0.7865582494213283 -0.03760331174141986
-0.6432410959426813 0.764505600003035 0.04209608122446948
-0.6684138660481795 0.7354405605271201 0.1111309390137626
-0.6925465995584255 0.7006979652873385 0.1714688568873224
-0.7160703032652 0.6607965118481225 0.2249250779949577
-0.7391940787497192 0.6157102675055013 0.2729340221182718
-0.7619036616635784 0.5651161310583548 0.3164594267220796
-0.7839639108746705 0.5086017680743451 0.355984308583596
-0.804926838469685 0.4458413464930147 0.3915587803491223
-0.8241605284335786 0.376720082857102 0.4228964442321805
-0.8409079649267989 0.3014043439694868 0.4494766022375267
-0.8543661994008137 0.2203837978665609 0.4706265812290236
-0.8637748919045838 0.1345059568136338 0.4855935375361507
-0.8685072496436711 0.0449875222985994 0.4936307123283744
-0.8681559781667892 -0.04661905785310039 0.4940970157956371
-0.8625973770333106 -0.1385289619120037 0.4865547161901061
-0.8520159470188086 -0.2288972678763607 0.4708236047442605
-0.8368759585604726 -0.3160325765729435 0.4469474695399404
-0.8178475231690262 -0.3985712502965135 0.4150498612014734
-0.7957011047844846 -0.475536250169295 0.3751333451183402
-0.7711865786695417 -0.546267531924564 0.3268991349713416
-0.7449021887900452 -0.6102625137531945 0.2696301048537258
-0.7171667317236858 -0.6669364009464293 0.2021576513550499
-0.687888612503706 -0.715324027081037 0.122966633963419
-0.6563972835659309 -0.7538074481770477 0.03028097092356366
-0.6213927399676313 -0.7796003411159265 -0.0780664514849391
-0.5825038780252173 -0.7869052412534234 -0.2036403039024287
-0.5464911052845877 -0.7630124037999065 -0.3451949354963333
0 0 0
0 0 0
0 0 0
0 0 0
0 0 0
0 0 0
0 0 0
-0.3546127002631394 0.7662612461235224 -0.5358111005767898
-0.4426103505430254 0.8046915533218686 -0.3956862160912581
-0.4893773530208502 0.8300671747246624 -0.2673916449609489
-0.5236209573698002 0.8380154359107067 -0.1534640745533671
-0.5518901537212241 0.8321294479349208 -0.05456958956311854
-0.5768331120493386 0.8162864302563944 0.03065982098360722
-0.6000434608929855 0.7931186425612947 0.1044541232374118
-0.6224925747490332 0.7641453460525096 0.1690706494002097
-0.6447446740960002 0.7300565055651422 0.2265431612449497
-0.6670901005519718 0.6909368856477082 0.2785624127498273
-0.6896039725815764 0.6464661467397439 0.326386093636319
-0.7121632130713025 0.5960981232349256 0.3707972295254607
-0.734445503827723 0.5392260884073844 0.4120983225980335
-0.7559271372749828 0.4753365089820379 0.4501437174503462
-0.7758973336457318 0.4041474234574899 0.4844049832052881
-0.7935015314257676 0.3257205428445811 0.5140636610323593
-0.8078159833554702 0.2405488911435768 0.5381166862354572
-0.8179465258653884 0.1496102650010835 0.5554999994878905
-0.8231415981451633 0.05437164847575748 0.5652270634400429
-0.822901505569521 -0.04328267628160742 0.5665330723491048
-0.817062774254107 -0.1412062972511492 0.558989449403834
-0.8058327907720744 -0.2372178499395654 0.5425506473929778
-0.7897647442995768 -0.3293453417209167 0.5174971444830936
-0.7696756944407368 -0.4160208378017172 0.4842788328039188
-0.7465288004932947 -0.4961635745495469 0.4433017677883295
-0.7212957503498368 -0.5691468921180507 0.3947204779583006
-0.6948153228309116 -0.6346678977589353 0.3382725627561732
-0.6676474160559068 -0.6925484733344299 0.2731730951540075
-0.6399156055816475 -0.7424790997178861 0.1980727245614348
-0.6111209522713353 -0.7837077962740854 0.1110552644145807
-0.579930105052982 -0.8146077420353778 0.009762165193221378
-0.5437855035158404 -0.8322583760106289 -0.1079042247837113
-0.4965261834909037 -0.8333673736784192 -0.2428179762626546
-0.4124051617374369 -0.8204879808635344 -0.3958806080509606
0 0 0
0 0 0
0 0 0
0 0 0
0 0 0
-0.2785357699007232 0.7490637656779379 -0.6011000747248317
-0.3555603609676963 0.8158271639014997 -0.4560733146643817
-0.4146540221455339 0.8532897650933634 -0.3161623296748729
-0.4546622643176917 0.8697430926411469 -0.1919092968267093
-0.4842342269008843 0.8708547540763237 -0.08443465402527432
-0.5084272147700255 0.8610704483530459 0.007710399099791865
-0.5299546543306977 0.8435528477784455 0.08698653549891956
-0.5503665489110118 0.8202046308054746 0.1560801891497995
-0.5705682138130368 0.7919415100782798 0.2174409299123179
-0.5910674892600986 0.7589779968131251 0.2731146709594681
-0.6121040832762915 0.7210433161886055 0.324692358111842
-0.633710177813642 0.6775451602628815 0.3732880474107729
-0.6557280163601943 0.6277107435405532 0.4195235285464809
-0.6778046427265164 0.5707238274483318 0.4635247340553741
-0.6993822072314189 0.5058709935634288 0.5049347146703795
-0.719701684216695 0.4326939361309701 0.542959891125615
-0.737836268994126 0.3511404831977033 0.576452947964108
-0.7527620498004003 0.2616938063200822 0.6040410980339054
-0.7634657205442312 0.1654578780314802 0.6242946292826784
-0.7690762850660349 0.06416245400765763 0.6359283349912483
-0.7689998582284667 -0.03993611865772005 0.6380002542876871
-0.7630249699894568 -0.1442682957034879 0.6300631349534732
-0.7513712707039201 -0.2462414824582829 0.6122142973481773
-0.7346632253957996 -0.3435437434568123 0.5850193514600348
-0.713837624652283 -0.434376295296843 0.5493205618898456
-0.6900042254477788 -0.5175656525023202 0.5059841541136022
-0.6642903837014253 -0.5925415956227978 0.455645414306565
-0.6376852632629343 -0.6592114513228625 0.3984943756969312
-0.6108931474526035 -0.7177579396833392 0.3341154028430576
-0.5841811506598055 -0.7683833784773249 0.2613797369605328
-0.5572012571418388 -0.8109887691988805 0.1783927556624395
-0.5287298111019012 -0.8447652267444506 0.08256208897274768
-0.4961827963073149 -0.8677315834864051 -0.02906082704997938
-0.4545955910911938 -0.8763670751921399 -0.1591338998441932
-0.3955978344166887 -0.8650644647141654 -0.3084895870100318
-0.319426055331712 -0.8242551482481013 -0.4675151823863283
0 0 0
0 0 0
0 0 0
0 0 0
-0.3094891908546486 0.785839695863387 -0.5354179798526323
-0.3463926610341933 0.8548894173644956 -0.3862333601073878
-0.3842517514792432 0.8889733263323494 -0.2491525969255213
-0.4145346570110264 0.9007255833915936 -0.1298246569824981
-0.4386074503475207 0.8982383594028139 -0.02813101841362267
-0.4589521570387269 0.8865368983075358 0.05844010171750776
-0.4774385847975688 0.8685369558422765 0.1330261405992269
-0.4952879035478709 0.8457167813742085 0.1986278386863315
-0.5132615034732781 0.8185946879924046 0.2578087776685794
-0.5318078640698074 0.7870532426893482 0.3126141213792019
-0.5511491198884453 0.7505484496565511 0.3645705313987118
-0.5713209394888946 0.7082531781007709 0.4146924400223419
-0.5921790088098343 0.6591748194837865 0.4634787793238425
-0.6133858494472656 0.6022790710387447 0.510898933534376
-0.6343923913773436 0.5366352952166826 0.5563891207511509
-0.6544321733270876 0.461590411316062 0.5988762999947926
-0.6725446767042798 0.3769570022059398 0.6368571867574756
-0.6876419481250849 0.2831916954680028 0.6685439512827076
-0.698620527860639 0.1815169302421862 0.6920845050188414
-0.7045098894195722 0.07394022677527533 0.705831891157124
-0.704628961917247 -0.03687301451469258 0.7086172498803719
-0.6987150789094443 -0.1478716958944156 0.6999508554590655
-0.6869849047924305 -0.255992913245772 0.6800877656268176
-0.6701098849845852 -0.3585397943009463 0.6499245786616941
-0.6491087641194928 -0.4534704531905825 0.6107555652029637
-0.625190008439263 -0.5395307307993432 0.563953937720839
-0.5995761678920269 -0.6162301241352238 0.5106553172191569
-0.5733426393635407 -0.683690498756645 0.4514925467796095
-0.5472764446384812 -0.7424178682114499 0.3863990192847659
-0.5217518505637195 -0.7930204396466205 0.3144735103884175
-0.4965963405821073 -0.8358718252546493 0.2339024716969027
-0.4709242077550579 -0.8706741162892833 0.1419752576125368
-0.4429405305445786 -0.8958557523081008 0.03530095547394128
-0.4099813014472405 -0.907688613335913 -0.08953610268463513
-0.3702095563697288 -0.8989347566018489 -0.2342246523013807
-0.3314071171002716 -0.8568585337331517 -0.3949212274668959
0 0 0
0 0 0
0 0 0
-0.193498108213761 0.7599890547403003 -0.6204636321273308
-0.274727105952879 0.8389669130496812 -0.4697441176456001
-0.3163429916864801 0.891689513250246 -0.3237544186113698
-0.3461132874938994 0.918301903926924 -0.192164527070818
-0.3693386806383208 0.9259583459704797 -0.07867706471365886
-0.3883867997320956 0.9213293081097771 0.01754992341351017
-0.4049938547446525 0.9088958199028522 0.09944026439118367
-0.4204322363987771 0.891183412530716 0.1703785779575295
-0.4355875032141888 0.8693391838906372 0.233479999991411
-0.4510551217149755 0.8436055780585828 0.2913398459585165
-0.4672165621059967 0.8136330787280077 0.345991180947486
-0.4842839033722914 0.7786725826530575 0.3989211826400216
-0.5023154093877135 0.7376994778227806 0.4510861446682328
-0.5212082847538919 0.6895168547762685 0.5029000207629222
-0.5406755972371226 0.632870534511629 0.5542064462808468
-0.5602192759404175 0.5666017098676426 0.6042490092998557
-0.5791134684594654 0.489843119747271 0.6516757696010399
-0.596417587811385 0.402251237832731 0.6946078048879698
-0.6110339089356693 0.3042352067518994 0.7308067467555456
-0.6218194041039929 0.197127434145646 0.7579455147877771
-0.6277418060962794 0.08322042664384481 0.7739603255130052
-0.6280546249350034 -0.03438049080953715 0.7774093966176679
-0.6224440898375794 -0.1521000055465558 0.7677427585715181
-0.6111056381075306 -0.2663598889503859 0.7453873547569242
-0.5947196745423545 -0.3740530455304385 0.7116128356358102
-0.5743369164110869 -0.4728914748577346 0.6682146058372863
-0.551203448056139 -0.5615600591412537 0.6171102485199009
-0.5265754618871031 -0.6396693711532612 0.5599476569705194
-0.5015540370216514 -0.7075646177199502 0.4977909799284274
-0.4769597996682913 -0.7660498522254404 0.4309025103265978
-0.4532354560434304 -0.8160751852023319 0.3586069066290867
-0.4303611266302472 -0.8583848301302488 0.2792217471612974
-0.4077542052526375 -0.8930895273711836 0.190072628746764
-0.3841539415282078 -0.9190947483499802 0.08769602478920191
-0.3575270541543803 -0.9333709705324865 -0.03151248823774811
-0.3249493010346216 -0.930374010165011 -0.1697414297294161
-0.2807618510936287 -0.9030188523381203 -0.3251610912954108
-0.1991363074744792 -0.8486001243954242 -0.4901250451889799
0 0 0
0 0 0
-0.227902503180636 0.7868978889631977 -0.5734563291038497
-0.2564754886594492 0.871927928650317 -0.4170875339259899
-0.2822924516462946 0.9199148069885977 -0.2721538528602062
-0.3031245632359783 0.9418315394794317 -0.1451511295333262
-0.3201227445720646 0.9466522693312494 -0.03702579341005147
-0.3345568337068525 0.9408076315931457 0.05433898560095016
-0.3474859663453704 0.9283032360391977 0.132312528326598
-0.3597278088364785 0.9112823773329757 0.2004004299198614
-0.3718914945003001 0.8906156176338271 0.2617260742552207
-0.3844223727130816 0.8663401413023328 0.3188639191346332
-0.3976359413590522 0.8379396480684987 0.3738218885168976
-0.4117337717327501 0.8045099004385918 0.4280643892114946
-0.4268019955507472 0.7648638940818231 0.4825176474740472
-0.4427932565897726 0.7176203659351427 0.5375454792980171
-0.4594970295001679 0.6613149626176336 0.5928954377447674
-0.4765048679803145 0.5945591829733463 0.6476437977261335
-0.4931850036058437 0.5162637438047735 0.7001716211408333
-0.5086822446238894 0.4259131246666177 0.7482248219894329
-0.5219634866396233 0.3238533422096786 0.7890964018132559
-0.5319184342073233 0.2115130354040872 0.8199542762889758
-0.5375144294291347 0.09146954735889357 0.8382789273633389
-0.5379762197103036 -0.03272112903569046 0.8423247086135133
-0.5329472380675535 -0.1569368518700969 0.8314674172577473
-0.5225764919340998 -0.2770670075619698 0.8063173589837346
-0.5075032588672326 -0.3895880998352944 0.7685450895724095
-0.4887395554070129 -0.4919803111713978 0.7204783275021176
-0.4674935621512345 -0.5828899938006288 0.6645968887034093
-0.4449796003510302 -0.6620522683386165 0.603058827361916
-0.422261043588525 -0.7300418981463714 0.5373401511318243
-0.4001372433079566 -0.7879462798223159 0.4680073147207006
-0.3790739020241259 -0.8370156136244695 0.3945983265968768
-0.3591503216036399 -0.8783061572328638 0.3155777886018614
-0.3400065743234019 -0.912275286872708 0.2283622787988032
-0.3207757349969418 -0.9382635825544408 0.1294773242281339
-0.3000338694314024 -0.9538103870169083 0.01501408714090605
-0.2758714168795368 -0.9538796818896398 -0.1183575676794493
-0.2465083862238248 -0.9302891518613953 -0.2716536571635487
-0.2144529730384945 -0.8714955471582703 -0.4410277016676582
0 0 0
0 0 0
-0.2148187230171528 0.8229968871546062 -0.5258602856036072
-0.2267710904874656 0.9010727742818166 -0.3696521715981055
-0.2418184568696642 0.9430548796292618 -0.2284104374248518
-0.2555755078958606 0.9609031223707936 -0.1065192432466175
-0.2674071466365027 0.9635774173161279 -0.003461035409211352
-0.2777135079773879 0.9570183891306122 0.08361226197598376
-0.2870581337622323 0.9447418519398659 0.1583049621274578
-0.2959453969297871 0.9285365359667288 0.2241343869444799
-0.3047869771168831 0.9090386795258493 0.2841717398086098
-0.3139123247366625 0.8861262731459986 0.3409388221056775
-0.3235800458181711 0.859158800410021 0.3964115407330158
-0.3339804407099236 0.8271147264692006 0.4520379347809029
-0.3452258370959936 0.7886755101706814 0.508733782108467
-0.3573297146012682 0.7423020694487001 0.5668360545652971
-0.3701747261820817 0.6863397111947827 0.6260259363102157
-0.383476202887722 0.6191860165335716 0.6852405991679866
-0.3967494416001947 0.539536669433793 0.7426237694325591
-0.4092984993259284 0.4467052563635144 0.7955684460728374
-0.4202425463258097 0.3409655045531629 0.8409154101111513
-0.4285973584854776 0.223830081021866 0.875331022601744
-0.4334105101892294 0.09814437985465144 0.8958364863971868
-0.4339331687422573 -0.03209734941892384 0.9003731255571674
-0.4297799022001612 -0.1622408448053368 0.8882382247694984
-0.4210266718234093 -0.2876583663576578 0.8602262527252617
-0.4082058551059981 -0.4044358513818775 0.8184128676738875
-0.3922046857121478 -0.5098497232970818 0.7656557608738561
-0.3740978846623313 -0.6025368893676764 0.7049823186735201
-0.3549722197909615 -0.6823724895849047 0.6390324785442254
-0.3357791260164051 -0.7501619450581556 0.569657295852711
-0.3172395381805861 -0.8072558835121284 0.4976916856348121
-0.2997882842658657 -0.8551699201483002 0.4228609609439936
-0.2835442703240038 -0.8952234592489398 0.3437696972928092
-0.2682798168919848 -0.9281654354258474 0.2579435293414999
-0.2533907912036179 -0.9537102554464607 0.1619563385281674
-0.2379082773513526 -0.969907659411808 0.05175696843922633
-0.2207475888303757 -0.9723193273697401 -0.07658738570307015
-0.2017968563007286 -0.9531270159553223 -0.2254482651147375
-0.1855102683399806 -0.9005548779581815 -0.3931753452674167
0 0 0
0 0 0
-0.1706973036005327 0.8587881168262546 -0.4830583825393389
-0.1818472008551108 0.9266967594787465 -0.3288840396138895
-0.1935764472599287 0.9620265070366802 -0.1924400135757311
-0.2034717814217082 0.9761526795729409 -0.0756649213813313
-0.2115727380639484 0.9770950233944066 0.02285370355121968
-0.2183500015559301 0.9700652723341625 0.1062856727493028
-0.2242606897565628 0.9580817487956979 0.1782877047204517
-0.2296789688902996 0.9426175856228628 0.2423213951016555
-0.2349085416740089 0.9241150416324775 0.3013791082294759
-0.2402024523023549 0.9023275146750259 0.3579215530927484
-0.2457754182174404 0.8765217647198046 0.4138889220219849
-0.251805556195531 0.8455880917263046 0.4707172622708088
-0.2584272721476833 0.8081069685952535 0.5293188758377092
-0.2657136515281429 0.7624122658190534 0.5900201626387334
-0.2736505498264541 0.7066928165298754 0.6524573853093782
-0.2821028079113042 0.6391643746776065 0.7154627229363815
-0.2907814518639389 0.5583380883731077 0.7769843797167112
-0.2992210572251398 0.4633760451179314 0.8341159390180322
-0.306786230407464 0.3544871066469623 0.8833012510199691
-0.3127200001647797 0.2332540848252793 0.9207598673971736
-0.3162454818137732 0.1027603715122754 0.9430954889506326
-0.3167056287374579 -0.0326105124160008 0.9479631317756915
-0.3137096476882469 -0.1677279947347282 0.9345873831427333
-0.3072309825657531 -0.2975104896263807 0.9039339754174263
-0.2976248865861915 -0.4177101802107601 0.8584507162515796
-0.2855544206514562 -0.5254479362579172 0.8014756010813469
-0.2718585514115512 -0.6193770039096543 0.7365222705745644
-0.257401347262484 -0.6995186230294014 0.6666470148905699
-0.2429485801616727 -0.766891186767242 0.5940150629875959
-0.2290829188426263 -0.8230769404399857 0.5196781373220297
-0.2161594198441066 -0.8698121097037504 0.4435109908732467
-0.2042763386472917 -0.9086281691015018 0.3642334797682787
-0.193247386658705 -0.9405043237300035 0.2794764115175897
-0.182559085621734 -0.9654599463906638 0.1859012430627949
-0.1713405309093275 -0.9820014142475157 0.07947103172595768
-0.1584571696890069 -0.9863875696575626 -0.04394186840810964
-0.1431629573677135 -0.9717930440289856 -0.1874103711500715
-0.1279218673994427 -0.9273923961830093 -0.3515385318040894
0 0 0
-0.005083256902779729 0.7983394592720893 -0.60218624051734
-0.09385962681248811 0.8894099588288122 -0.4473704232409091
-0.1252432360348947 0.9463573573353165 -0.2978621896864775
-0.1398165233692357 0.9762361773727251 -0.1655725393343612
-0.148136545861274 0.9875583130669527 -0.0527649701283391
-0.1534908005259779 0.9872451186830961 0.04228060773324958
-0.1571514614778201 0.9798949075676692 0.1229202517013916
-0.1597317136802435 0.9681406395261045 0.1928457459804534
-0.1615926068108321 0.9532158231662122 0.2554748987467057
-0.1629867875948615 0.9354163460668123 0.3137380540841677