# OOMMF: rectangular mesh v1.0
# Segment count: 1
# Begin: Segment
# Begin: Header
# Title: 
# Desc: time = 8.8e-10
# Desc: stepsize = 8.629545957522501e-14
# Desc: step = 5630
# meshunit: m
# valueunit: (none)
# valuemultiplier: 384000.0000000001
# xmin: 0
# ymin: 0
# zmin: 0
# xmax: 9.357999999999999e-08
# ymax: 9.357999999999999e-08
# zmax: 2.3395e-08
# ValueRangeMaxMag: 1
# ValueRangeMinMag: 0
# meshtype: rectangular
# xbase: 1.16975e-09
# ybase: 1.16975e-09
# zbase: 1.16975e-09
# xstepsize: 2.3395e-09
# ystepsize: 2.3395e-09
# zstepsize: 2.3395e-09
# xnodes: 40
# ynodes: 40
# znodes: 10
# End: Header
# Begin: Data Text
0 0 0
0 0 0
0 0 0
0 0 0
0 0 0
0 0 0
0 0 0
0 0 0
0 0 0
0 0 0
0 0 0
0 0 0
0 0 0
0 0 0
0 0 0
0 0 0
-0.8453815351965738 0.04108244726002448 -0.5325807849292074
-0.8554794352902738 0.05755350013737395 -0.5146285363418657
-0.8662855182753487 0.03649367400298251 -0.4982144243036061
-0.8720945467820037 -0.0001650928494464823 -0.4893373828121475
-0.871103084920522 -0.04132194578343175 -0.4893586744287061
-0.8633716087155772 -0.07840240237960214 -0.4984400952621915
-0.8508740588092049 -0.1002114964992657 -0.5157237555270524
-0.8396916239763463 -0.08429387121507655 -0.5364816118932143
0 0 0
0 0 0
0 0 0
0 0 0
0 0 0
0 0 0
0 0 0
0 0 0
0 0 0
0 0 0
0 0 0
0 0 0
0 0 0
0 0 0
0 0 0
0 0 0
0 0 0
0 0 0
0 0 0
0 0 0
0 0 0
0 0 0
0 0 0
0 0 0
0 0 0
0 0 0
0 0 0
0 0 0
-0.7851273988442535 0.2563170308983447 -0.5638054161282177
-0.8133464655133713 0.2841853582124803 -0.5076477215693476
-0.8507027497819774 0.2654389189689235 -0.4537036607853094
-0.8877454538181307 0.2160239165283431 -0.4064992948493215
-0.9203790748935421 0.1332654065127254 -0.3676175865285898
-0.9340307674024734 0.09109627153269768 -0.3453809416548443
-0.9426633160667588 0.05048976452477103 -0.3299040106155945
-0.9468079421071119 0.005915650059899596 -0.3217448147946814
-0.945945993207946 -0.04052319104247497 -0.3217826112790539
-0.9400857991890037 -0.08544940897160819 -0.3300561901700597
-0.9297346937197787 -0.1267262252866653 -0.3457366962276091
-0.9141768242424897 -0.1696935402893014 -0.3680826488738614
-0.8785777343941855 -0.2524894586956254 -0.4054013293939346
-0.8384969674029478 -0.3034150229367936 -0.4526170119563827
-0.7984204413975434 -0.3241190237205328 -0.5074166505161217
-0.7683532162739453 -0.2981056203544795 -0.5663624053153193
0 0 0
0 0 0
0 0 0
0 0 0
0 0 0
0 0 0
0 0 0
0 0 0
0 0 0
0 0 0
0 0 0
0 0 0
0 0 0
0 0 0
0 0 0
0 0 0
0 0 0
0 0 0
0 0 0
0 0 0
0 0 0
0 0 0
-0.7543349480650905 0.3516102611005579 -0.5543906658814108
-0.7923577150428853 0.3785257480809472 -0.4784218948290057
-0.8480986967337986 0.3404243192594871 -0.4060047825520615
-0.8824685886443729 0.3180452713419416 -0.3465492684064396
-0.9129263792438287 0.2836253340972855 -0.2934656639863607
-0.9401001251199863 0.233693864454966 -0.2481913223009402
-0.961805750712772 0.1715352619086938 -0.2133198345624621
-0.974640965137292 0.1168032503114132 -0.1908716579090164
-0.9821603610235267 0.06471516405634045 -0.1765586949863868
-0.9854750899067204 0.01230152631892995 -0.1693739047892717
-0.9847140538875987 -0.04061327171437217 -0.1693776674680145
-0.9798575131660288 -0.09329366006394152 -0.1765659845042604
-0.9707133591542589 -0.1459106815835774 -0.1908550427923504
-0.956032660134133 -0.201385582525631 -0.2131792670680357
-0.9320611614094957 -0.2643893480098859 -0.2477100402706537
-0.9024594523369334 -0.3156546783023306 -0.293136590949635
-0.8695642751846843 -0.3517435368326586 -0.34660417715167
-0.8327620852325085 -0.3760079025268427 -0.4063562065928953
-0.7742367972502161 -0.4154187679934765 -0.4774773596543704
-0.7339040494176546 -0.3908377241876133 -0.5555454253256119
0 0 0
0 0 0
0 0 0
0 0 0
0 0 0
0 0 0
0 0 0
0 0 0
0 0 0
0 0 0
0 0 0
0 0 0
0 0 0
0 0 0
0 0 0
0 0 0
0 0 0
0 0 0
0 0 0
-0.755054608380254 0.4321224199391397 -0.4931153542019175
-0.806582302265854 0.4308536653830289 -0.4047099068438066
-0.8466313969663577 0.4200064101449231 -0.3268178286262357
-0.8850334646842672 0.3878773495408981 -0.2574236354767938
-0.9149488066081537 0.3507677923736562 -0.1995761436635804
-0.939982577262877 0.3062984369368049 -0.1503795929383666
-0.961147181884881 0.2533116336164024 -0.1096782158376974
-0.977850469192275 0.1939929187737893 -0.07858248765515645
-0.9892258301061881 0.1346628376384046 -0.05742975892248611
-0.996125741205074 0.07602506876982497 -0.04420064057436766
-0.9991345177823204 0.01747663534503087 -0.03774629243920728
-0.9984387725286146 -0.04119852602272861 -0.03771868191105522
-0.994015171279465 -0.09994010475540319 -0.04411139000002167
-0.9856233218874081 -0.1589588528176007 -0.05726037427875121
-0.9726132562500085 -0.2188398733393031 -0.07831068639459393
-0.9540864532420652 -0.2788704150011551 -0.1093175712182607
-0.9309676245330718 -0.3328204084933258 -0.1500994928758403
-0.9038543408292078 -0.3785263355804598 -0.1994119952165034
-0.8716539456298863 -0.4172042901943492 -0.2572158224357114
-0.830618576746464 -0.4512349084281252 -0.3262818373424103
-0.7877938608659962 -0.4644639584356819 -0.404541795240126
-0.733737335719487 -0.4671748648691504 -0.4933327151180623
0 0 0
0 0 0
0 0 0
0 0 0
0 0 0
0 0 0
0 0 0
0 0 0
0 0 0
0 0 0
0 0 0
0 0 0
0 0 0
0 0 0
0 0 0
0 0 0
-0.6469544094039309 0.5216886213297216 -0.556139348120509
-0.6985595151367695 0.5561076285564482 -0.4502875850755877
-0.7789849932197797 0.5210474795552978 -0.348843667546726
-0.8287976226372236 0.4939919565096462 -0.2628049611682728
-0.8656961142109441 0.4635575957719222 -0.1889036612726884
-0.8967851122233692 0.4243609219272709 -0.1252767753239006
-0.9225226495637252 0.379159805082996 -0.07204028908429
-0.9441786966356368 0.3282675478389852 -0.02769487055772482
-0.9623304714887825 0.2717535569080858 0.008370660187863871
-0.9768418188007902 0.2109088590808717 0.03602102446028535
-0.9873900729071248 0.1482826881699603 0.05543544275598813
-0.9940728207232886 0.08508101202693336 0.06767901071762587
-0.9970515005554418 0.02161874751260295 0.07362699909766361
-0.9963976991807956 -0.04198528844111102 0.07368080226037581
-0.9920916932000365 -0.1056010983415192 0.06784158247379471
-0.9840238177708647 -0.1690969059127518 0.0557078313200688
-0.9720019576368861 -0.2321369860252165 0.03639524789294041
-0.9559163075241305 -0.2935068989099456 0.008815514828876986
-0.9360967394015925 -0.3506866339042078 -0.02723562524786769
-0.9126498245682775 -0.4024307397879098 -0.07155275948031242
-0.8849166963952565 -0.4487566121442355 -0.1246593097114405
-0.8515093103520381 -0.4894578127908373 -0.1880503759150866
-0.8118836028757539 -0.5218429072986739 -0.2617727936275119
-0.7587795784033156 -0.5510059676330734 -0.3473412947388005
-0.6742831154254115 -0.587786463612653 -0.4470451358039053
-0.6190790540634717 -0.5562123221180042 -0.5544086737632934
0 0 0
0 0 0
0 0 0
0 0 0
0 0 0
0 0 0
0 0 0
0 0 0
0 0 0
0 0 0
0 0 0
0 0 0
0 0 0
-0.6230913646600114 0.5672256982626451 -0.5385277694943676
-0.6864547183614333 0.5903130167330924 -0.4246297939556294
-0.7378455275967146 0.5951734116232161 -0.318359211429962
-0.7897214747001517 0.5722063543153415 -0.2211783906229603
-0.8304508253666943 0.5394472158487073 -0.139097548363922
-0.8629667392879444 0.500359185067391 -0.07020749818522613
-0.8903558898774171 0.4551003702321548 -0.01224917854991818
-0.9137890124712837 0.404586193188957 0.03605069996023928
-0.9339387388144796 0.3492652621830527 0.07597505362829321
-0.9510425450476075 0.2894724907248272 0.1082762883688465
-0.9649681668184928 0.2260221280704356 0.1332307571451432
-0.9754399386003745 0.1602249873278426 0.1511452269146781
-0.9822840490129587 0.09310819084473593 0.1626312142619826
-0.9854179147262062 0.02529752027217876 0.1682604196022739
-0.984799901605145 -0.04278295055701879 0.168341239570497
-0.9804118640189292 -0.1107500180149696 0.1628711466178453
-0.9722635179500795 -0.1781587304230347 0.1515358651850682
-0.9604175481345273 -0.2443507908120635 0.1337565858744209
-0.9450425050701873 -0.308272868234119 0.1089151152107632
-0.926413233003104 -0.3686110780038319 0.076709809604697
-0.9046400381483981 -0.4245758732926266 0.03690161509564863
-0.8794301569217163 -0.4758956343265108 -0.01122249195199532
-0.8500201033847061 -0.5222187236242664 -0.06894511250331653
-0.8151140126469004 -0.5627280740748578 -0.1375727481540925
-0.7714447162843937 -0.5973103345930304 -0.2193021064770081
-0.7159381088975642 -0.6225481192683352 -0.316016555616375
-0.6605844720885081 -0.6205953833609901 -0.4224802070944535
-0.5936890514254988 -0.5998732346526031 -0.536363134979385
0 0 0
0 0 0
0 0 0
0 0 0
0 0 0
0 0 0
0 0 0
0 0 0
0 0 0
0 0 0
0 0 0
-0.5781728262321161 0.6116464319339517 -0.5400044678604358
-0.646932082509447 0.6389700559995658 -0.4161684132126091
-0.7001799989584064 0.646951426769829 -0.3019963914669973
-0.7439965516410556 0.6376534315067767 -0.1996678052011641
-0.7834029147556713 0.6117619310091789 -0.1096686505809152
-0.8172168265661859 0.5753507665278317 -0.03358800132380607
-0.8462855202937833 0.5318853795481318 0.0299793456236076
-0.8718032438998266 0.4827580170057357 0.08308911446410108
-0.8944183368739259 0.4287178257850405 0.1273454534635115
-0.9143812771770023 0.3701633171570255 0.1639695050290157
-0.931645029967936 0.3074309183586288 0.1937105277810506
-0.9459439276098603 0.2410949390691028 0.2169408126040286
-0.9569162323926464 0.1720118088414897 0.2339300361273442
-0.9642369445256971 0.1010617552231922 0.2450176247598413
-0.9676752478849383 0.02901091361984977 0.2505254109302371
-0.9671042392644177 -0.04346676860310029 0.2506392435832737
-0.9625022494722402 -0.1157180513127955 0.2453543404165618
-0.9539584417420868 -0.18704023829311 0.2344765248127526
-0.9416805987431239 -0.2566198120577223 0.2176784831127095
-0.925987406108887 -0.323527385393342 0.1946210539183333
-0.9072435994195619 -0.3868714586136072 0.1650440117738799
-0.8857126022311651 -0.4460674907474523 0.1285961894737503
-0.8614220637891371 -0.5008031214244956 0.08454739256029761
-0.8340738586202822 -0.550742479777681 0.03167837329478113
-0.8029302709218278 -0.5952333422825086 -0.03162670189244288
-0.7666518429202571 -0.6330124495586533 -0.1074252784531013
-0.7242208366440276 -0.6607833027048732 -0.1971537639434357
-0.6767440685656223 -0.6726179148777852 -0.2993369443398327
-0.6192693660372219 -0.6676201597133388 -0.4132659853317142
-0.5465133296085126 -0.6428750791691398 -0.5366887488512208
0 0 0
0 0 0
0 0 0
0 0 0
0 0 0
0 0 0
0 0 0
0 0 0
0 0 0
-0.5330402795474264 0.6341235260283232 -0.5601387454170683
-0.5983709392816764 0.6775797718302445 -0.4275954534716632
-0.6509771331816353 0.6957543775749834 -0.3035697912504904
-0.6940177320271572 0.6935872821414583 -0.1930701159773441
-0.7306325349401105 0.6758637454859329 -0.09687257829083318
-0.7634077720657635 0.6457615577027375 -0.01416277313667357
-0.7930467335491743 0.6066017664087427 0.05577791136979972
-0.8200624262241349 0.5606959814593713 0.1145322376918255
-0.8448646221186941 0.509252022569143 0.163908961931532
-0.8676030351442711 0.4528556659950749 0.2053940582991755
-0.8881796853423274 0.3918096189747541 0.2400459727303539
-0.9063001447425476 0.3263923175892305 0.2684922767201456
-0.9215330569217425 0.257057344232402 0.2910298039319211
-0.9333913015616592 0.1844941099312248 0.3078028615359451
-0.9414249810886103 0.1095395564139549 0.3189358721795698
-0.9452912513138663 0.03308278341915129 0.3245458051349699
-0.9447935549521025 -0.04397325445987328 0.3247021580051093
-0.9399008526140298 -0.1207107172630305 0.3193983562782748
-0.9307549055325354 -0.1961889843888277 0.3085533798738896
-0.9176626920518269 -0.269454039762456 0.2920440105050709
-0.9010622737186554 -0.3395934762947732 0.2697462691845757
-0.8814493113556519 -0.4058489102515306 0.2415238571203503
-0.8592743598483397 -0.4677178999365556 0.2070930722795029
-0.8348488211493719 -0.5249048425382214 0.1658383312308359
-0.8082696872869738 -0.577130822690668 0.1167052959955536
-0.779347562349657 -0.6238826294733464 0.05820516902363551
-0.7475718125974201 -0.6640818319718548 -0.01147629969600413
-0.7122586480017042 -0.6956031562814152 -0.0939354422894588
-0.6724890269714175 -0.7153283202994514 -0.1899049835591495
-0.6254777491734081 -0.7201941132925628 -0.3001633296518845
-0.5681972007259313 -0.7052503907547072 -0.4239974379964433
-0.4985603012232224 -0.6646352401771674 -0.5565048279744284
0 0 0
0 0 0
0 0 0
0 0 0
0 0 0
0 0 0
0 0 0
0 0 0
-0.5647615322766917 0.6885258092696768 -0.4549468338498679
-0.5997970557557226 0.7322025421970288 -0.32268084713378
-0.6381576428925738 0.7427122166579813 -0.2028136732194876
-0.6729186625645975 0.7331253346548076 -0.09852774867796944
-0.7041930767269041 0.7099489282942576 -0.009199451273367062
-0.733163681189848 0.676749544245663 0.06694080181352724
-0.7605229691499519 0.6358275819420142 0.1316362390723478
-0.7865778941523595 0.5886083255532526 0.1866425876380708
-0.8113784976422707 0.5358334767930878 0.2335538882391015
-0.8347573427271863 0.477830037969528 0.2736030584205623
-0.8563621980773048 0.4147578019645538 0.3076032370013975
-0.8756952134089321 0.3468132913043417 0.3359738593809553
-0.8921614192913313 0.2743821554546028 0.3588348292685129
-0.9051355661683941 0.1981059099787907 0.3761431313855075
-0.9140428433853232 0.1188574877061332 0.38781255533087
-0.9184353346019661 0.03767567465642013 0.3937728783115434
-0.9180490260887387 -0.04429787389595017 0.3939843703318903
-0.9128377307061804 -0.1258713076217928 0.3884374998848211
-0.9029826481641262 -0.2058543651680894 0.3771555613480255
-0.8888751087359742 -0.2831221998171321 0.3601983634614645
-0.8710682851005942 -0.356696667228911 0.3376500115203565
-0.8502006230732295 -0.4258313278393422 0.3095586870957978
-0.8269064688846686 -0.490052971323043 0.2758147512627722
-0.801735070324912 -0.549108723854442 0.2360095048892181
-0.7750822648654241 -0.602825577399777 0.1893378090179275
-0.7471265328944297 -0.6509168225005787 0.1345705541004354
-0.7177674516813173 -0.6927437810198466 0.07011375874415865
-0.686561477056732 -0.7270486693593052 -0.005794014544439041
-0.6525857307101151 -0.7517472879053664 -0.0949098477528597
-0.6143743473849141 -0.7634935669805377 -0.1990520898023811
-0.5716963278181215 -0.7558803771540851 -0.3190739165031707
-0.5322571162471834 -0.7154026500540357 -0.4526603699241788
0 0 0
0 0 0
0 0 0
0 0 0
0 0 0
0 0 0
0 0 0
-0.4422966365894707 0.7439436290593223 -0.5009207143288112
-0.5272572808840267 0.7716663632890562 -0.3557116578396385
-0.5737813132630351 0.7868629352581179 -0.2272041497577126
-0.6092962668633559 0.7846296130209452 -0.114518249886118
-0.6399371047401449 0.7682259381660084 -0.01759005132899546
-0.6680444677219251 0.7412658980757341 0.06512647308203229
-0.6948844105280952 0.7061789009019261 0.1358197920995638
-0.721077781084828 0.6643872174734177 0.1965615905605923
-0.746805573879024 0.6166222173842083 0.249115386621146
-0.7719471150951918 0.5631625450388513 0.2948653919360051
-0.7961585437504849 0.5040443416755657 0.334769883409413
-0.81892032265002 0.4392498566046611 0.3693630580114517
-0.8395767027658257 0.3688719821743921 0.3988037373691458
-0.8573835909847771 0.2932432388797619 0.4229678247353512
-0.871574313850322 0.2130081594973568 0.4415718960983461
-0.8814429625496542 0.129126867959684 0.4542956699580251
-0.8864312757259694 0.0428249950773919 0.4608748346475986
-0.8862026593633952 -0.04448821525979416 0.4611568553542749
-0.8806896705511331 -0.131318164638633 0.4551277225356382
-0.8701074939715746 -0.2161931803920334 0.4429147295885332
-0.8549292281311929 -0.2977759184870862 0.4247652495863738
-0.8358257197560327 -0.3749668846512293 0.4009927700211825
-0.8135801288912473 -0.4469784019111291 0.3718839632173912
-0.7889957604976249 -0.5133519180147246 0.337572952393075
-0.7628127651469035 -0.5739021744510047 0.2979143828171828
-0.73563731071437 -0.6286004299678921 0.2523870965978847
-0.7078738736901751 -0.6774195031472797 0.2000434845291342
-0.6796465641137195 -0.7201518770048837 0.1395056340609875
-0.650688950421659 -0.7562019878549344 0.06901045836251966
-0.6201822741863408 -0.7843411817182874 -0.01352247927779392
-0.5865534814453276 -0.8023634687870512 -0.1103081019706872
-0.5471328015627922 -0.8068110449966522 -0.2229386353359594
-0.4957128715083353 -0.7942234070832033 -0.3513942638434902
-0.4057128962489249 -0.7682647227706276 -0.4951427688692213
0 0 0
0 0 0
0 0 0
0 0 0
0 0 0
-0.365165060348117 0.740397514087904 -0.5643279187080925
-0.4397380089688863 0.7969535981595318 -0.4141200862656319
-0.4976210233167424 0.8238016856996354 -0.2715218219437185
-0.5384116223878445 0.8297757215535215 -0.1469189463548566
-0.5703926670835086 0.8203840647142056 -0.04027644100909918
-0.5982396499842122 0.7997291380294644 0.05042446800330565
-0.6243225003082818 0.7706395172683979 0.1278129493953771
-0.6498476808654481 0.734756649506573 0.1945010480169021
-0.6753562717689023 0.692844873601949 0.252705139057177
-0.7009573660325429 0.6451062096738724 0.3041327822595402
-0.7264544506405505 0.5914215316645135 0.3499778607685576
-0.7514173875854688 0.5315403871730781 0.3909433800924666
-0.7752263331129376 0.4652458650848992 0.4272825967315678
-0.7971101033438406 0.3925032262029655 0.4588645775906383
-0.8161952931388958 0.3135860024791439 0.4852721530307108
-0.8315777217143088 0.2291593066157231 0.5059293477748054
-0.8424155540049196 0.1403025691124987 0.5202415049484387
-0.8480327479321882 0.04846548992343936 0.5277229905178115
-0.8480121897485713 -0.04463418553173083 0.528093851052776
-0.8422590489965901 -0.1371558941791303 0.5213328639892963
-0.8310190438391405 -0.2273022482370753 0.507682023241961
-0.8148472747968686 -0.31348076425426 0.4875999684153814
-0.7945336043644716 -0.3944335116475251 0.4616693150134651
-0.7710022582534585 -0.4693110603833633 0.4304679388408734
-0.7452066835128711 -0.5376757403186553 0.3944259082775026
-0.7180366932050273 -0.5994369372077101 0.3536928971893961
-0.6902414660154471 -0.6547369342718602 0.3080361431603953
-0.6623608006912182 -0.7038088223370237 0.2567709315873962
-0.6346482436388646 -0.7468152617297815 0.1987173160385912
-0.6069657251216917 -0.7836595568268007 0.1321752908887323
-0.5786250027656712 -0.8137419365723969 0.0549287432755509
-0.5481347734369879 -0.8356302736235998 -0.03564149201322683
-0.51272510731173 -0.8467006929945792 -0.1421650477954181
-0.4673355797556445 -0.8429297963966161 -0.2665835970970726
-0.4036700771128169 -0.8185876886820773 -0.4086130991315211
-0.3234423714145205 -0.7643584515233178 -0.5578003136953459
0 0 0
0 0 0
0 0 0
0 0 0
-0.390634881805505 0.7798641479795677 -0.4890974338645638
-0.4267499725757474 0.8388956736821376 -0.337843913048601
-0.4649450624398057 0.8625824099795057 -0.1994434127936857
-0.497213551347794 0.8639403325543464 -0.07991111400799888
-0.5248404228147235 0.8509336596273815 0.02131753955814595
-0.5500397403848111 0.8282455701536203 0.1070773529665024
-0.574373896046333 0.7984267080563612 0.1805807835923794
-0.5987397310860905 0.7626492048892949 0.2446976189109361
-0.6235470478865101 0.7212247514743165 0.3017017350510736
-0.6488493722012747 0.6739613843906413 0.3532287425228323
-0.6744211632635349 0.6204093863573259 0.4003102395167856
-0.6998007744500261 0.5600473861509312 0.4434250797425115
-0.7243186270888601 0.4924442145586334 0.4825569624405379
-0.7471272239154304 0.4174127140180303 0.5172693084463102
-0.7672497201706647 0.3351495782625962 0.5468113267740893
-0.7836568292853324 0.246340631098962 0.5702615780361007
-0.795373602623935 0.1522032731959767 0.586698385780507
-0.8016024783143657 0.05444638707275772 0.595373040786186
-0.8018396444197581 -0.04485724064962378 0.5958531804044492
-0.7959562656205851 -0.1434684603244936 0.5881074936705459
-0.7842238620657618 -0.2392139545127933 0.5725116751062913
-0.7672758834165667 -0.3302054591442864 0.5497745660528844
-0.7460165794439757 -0.4150027743659421 0.5207993476025874
-0.7215001235673044 -0.4926920893866453 0.4865100993280466
-0.6948078645557166 -0.5628750240677156 0.4476759303696064
-0.6669428398311126 -0.6255842796999544 0.4047611115093683
-0.6387484634537663 -0.6811540768242439 0.3578121351507852
-0.610844282328926 -0.7300695952918508 0.3063782772594234
-0.5835647579218526 -0.772804388167902 0.2494504979751364
-0.556882181794725 -0.809633101173689 0.1854089455323583
-0.5302952152910649 -0.8403842513382592 0.1119879223043105
-0.502667204510027 -0.8640792810761952 0.02631876754180557
-0.4720410416461453 -0.8783962289876602 -0.0748152384336198
-0.4357236820775658 -0.8788672115006543 -0.1942609004041517
-0.3921613912934091 -0.8576321861529326 -0.3326807425345787
-0.3502923255179448 -0.8014263224923331 -0.4847794718216153
0 0 0
0 0 0
0 0 0
-0.2727099978912094 0.7693562137371391 -0.5776852719554391
-0.3515727368460572 0.8370040050699148 -0.4193100358964647
-0.3929157903726394 0.8789056419351848 -0.2704478771415003
-0.4240788328006742 0.8950917281059699 -0.1377241512832268
-0.4503530488092043 0.8925302541247159 -0.02391394781970559
-0.473992809779802 0.8775528073707799 0.07233178106966734
-0.4965207955370943 0.8542233706749058 0.1541737091465747
-0.5189533146368637 0.8246579322378663 0.2250038933542672
-0.5418945324934284 0.7896500367955337 0.287755338860186
-0.56562339894425 0.7491754439856618 0.3446829335717677
-0.5901514666544271 0.7027384533019921 0.3973410533236552
-0.615251123238285 0.6496100919979185 0.4466237608194213
-0.6404664634765538 0.5890123871373594 0.492815499919174
-0.6651192993469019 0.5202882099083782 0.5356458683371144
-0.6883262779865645 0.4430730431031444 0.5743633114227275
-0.7090412914128467 0.3574635889275382 0.6078488542908063
-0.7261356871406728 0.264155863243893 0.6347823593757282
-0.7385167431105135 0.1645148617710875 0.6538561618596854
-0.7452719196585903 0.0605388223513594 0.6640066390908375
-0.7458094307493544 -0.04529700755790633 0.6646175397261362
-0.7399604746161382 -0.1503001847934081 0.655643462910236
-0.7280127305163122 -0.251870797923976 0.63761945183575
-0.710665887008558 -0.3477898141743976 0.6115523217181641
-0.6889221112284702 -0.4364214467594147 0.5787250171445211
-0.663943371373153 -0.5167969050283042 0.540462911366559
-0.6369091252194293 -0.5885826720426927 0.4979128481805875
-0.6088997153785243 -0.6519646600182063 0.4518663726139576
-0.5808133262818176 -0.7074879162004715 0.4026372169133955
-0.5533116119734148 -0.7558834907823287 0.3499805829158266
-0.5267791210957958 -0.7978936476139755 0.2930349546979084
-0.5012799832842193 -0.8340828865653594 0.2302696608269743
-0.4764948033786375 -0.864598186068425 0.1594449089821998
-0.4516276846644806 -0.8888224523335035 0.07763428799478039
-0.4252943816811796 -0.904864837518518 -0.01855571968445989
-0.3954527842368769 -0.9089087175145745 -0.1322952707594363
-0.3593434038681378 -0.8948065583275714 -0.2649406372575304
-0.3116715748440758 -0.8554619222009863 -0.4135767511580004
-0.2265312159447834 -0.7898340657427811 -0.5699524162549056
0 0 0
0 0 0
-0.3001845426518499 0.7985798113643183 -0.5216891078355276
-0.3280598840230278 0.87278934347487 -0.3614076291550892
-0.3546085017436287 0.9101183402782053 -0.2143301592879157
-0.3777735697775336 0.9218662240049217 -0.08631219506214538
-0.3987110709312011 0.9168026897189038 0.02241227433968597
-0.4185908796785412 0.9009402612904857 0.1144042002540808
-0.4383071700614385 0.8778124384150808 0.1932152883094456
-0.4584793964407181 0.8491091995889649 0.2623170032856076
-0.4794917404255697 0.81529775725691 0.3246186037113557
-0.5015256550485431 0.7760839399002478 0.3823162768664677
-0.5245715486719175 0.7307245444595662 0.4368825133240115
-0.548422856961189 0.6782461146933583 0.489095673530129
-0.5726597899674399 0.6176255307345503 0.539072786123833
-0.5966350241760393 0.5479704189817743 0.5863062918367797
-0.6194743565326077 0.4687172364078861 0.629726666016824
-0.6401094505654366 0.3798382268962201 0.6678194461717551
-0.6573549718383082 0.2820241703722769 0.69881815111321
-0.6700349080593213 0.1767891470088032 0.7209707480070435
-0.6771435023241112 0.0664438526041798 0.7328450666487084
-0.6780095332530072 -0.04609322903980045 0.7336064933291712
-0.672419047399107 -0.157627266198761 0.7231917239885851
-0.6606596369245665 -0.2650889783239971 0.7023223460134517
-0.6434711150179168 -0.3659032217949484 0.6723538922455015
-0.6219204376378475 -0.4582364714554786 0.6350073271044832
-0.5972383993167099 -0.5410828267491321 0.5920605281377762
-0.5706610699866349 -0.6142031468736942 0.5450692043879931
-0.5433044958386779 -0.6779654627510946 0.4951596269064891
-0.5160838982116597 -0.7331428005015329 0.4428984579781534
-0.4896704636297618 -0.7807090404109851 0.3882218840678257
-0.4644713106801864 -0.8216484023091192 0.3303941654114081
-0.4406140128461393 -0.8567667754051026 0.2679738499286152
-0.4179202117338258 -0.8864691443121214 0.1987841865111227
-0.3958569502391182 -0.9104479343108276 0.1199242838483131
-0.3734710140942764 -0.9272216202403153 0.02791896470710599
-0.3493483176981836 -0.9335024123823993 -0.08080222148981435
-0.3217241323948522 -0.9235139019816175 -0.2088436148927374
-0.28917454408176 -0.8885856333058402 -0.3560809673902336
-0.2549165777571851 -0.8170659975544269 -0.5171273479762539
0 0 0
0 0 0
-0.2806918230075192 0.83753559402463 -0.4687709773850395
-0.2928340605956742 0.9046481384611226 -0.3096125942752877
-0.309441002219222 0.9362042092240814 -0.166637165052323
-0.3262678445064743 0.9442676056335338 -0.04368046007325953
-0.3426958147604111 0.9375039464741496 0.06038152773069194
-0.359053236866498 0.921381235920678 0.1487863945022318
-0.3757870368244139 0.8989040744494881 0.2252899640304355
-0.3932616484661401 0.8713697324192159 0.2933599585310807
-0.4117263013952194 0.8389624368486307 0.3558419344265368
-0.4313097826398664 0.8011624976181598 0.4148620539521329
-0.4520076952413584 0.7570167772809708 0.4718205616097368
-0.4736567816900243 0.7053335294719618 0.5274029440206729
-0.4959025126101073 0.6448558285530653 0.5815854695297342
-0.5181683559456122 0.5744531750827182 0.6336443044279689
-0.5396417811684796 0.4933482173754085 0.6821981269615278
-0.5592929376161644 0.4013691733534865 0.7253235116926926
-0.5759434228243321 0.2991848181458985 0.7607743543892613
-0.5883908382508563 0.1884534605464923 0.7863087909151887
-0.5955790417353344 0.07180931214234022 0.8000806382704584
-0.5967785718176282 -0.04735960299606968 0.8010071187095442
-0.5917282100940302 -0.1653241461776477 0.7890029480740527
-0.5806901710539705 -0.2785199564902793 0.7650003654103459
-0.5644014819017454 -0.3840068441481628 0.7307459961398909
-0.5439388833754623 -0.4797632583763966 0.6884458635683111
-0.5205429692974625 -0.5647702373362593 0.6403667668876374
-0.4954489101224462 -0.6389117063953751 0.5884914688331765
-0.469758279315962 -0.702761755771237 0.5342780864301233
-0.4443621297429149 -0.7573329485495912 0.4785280584161414
-0.4199090242555933 -0.8038378642019454 0.4213325283240894
-0.3968000262060806 -0.8434828061995134 0.3620586897847458
-0.3751925078470748 -0.8772823578900719 0.2993430249567504
-0.3549955552543752 -0.9058585515533339 0.2310810254593247
-0.3358481852544906 -0.9291696410536114 0.1544337223716619
-0.3170875597846241 -0.9461023257313959 0.06592320286117483
-0.2977671506168565 -0.9538723355697151 -0.03823991956443598
-0.2769341154279602 -0.9472419765800987 -0.1613695557308139
-0.2548081946982276 -0.9177045898277879 -0.304780363087324
-0.2365938156247456 -0.8529979481386732 -0.4652073375166566
0 0 0
0 0 0
-0.2307683558056411 0.8763289568843623 -0.4228398340799102
-0.2424402878278125 0.9330996621695344 -0.2656082214410302
-0.2561728866224096 0.9582021535241351 -0.1273738008432312
-0.2695655629240942 0.9629373025221077 -0.009282170913212123
-0.2826282273959448 0.9549282022034715 0.09073816019443492
-0.2957662875168152 0.9388598549225761 0.1762511729983072
-0.3093556809315652 0.9172044876124529 0.2510677011862431
-0.3236820258543955 0.8909093595925177 0.3186070607021189
-0.338946814728302 0.8599192343061736 0.3816463903351131
-0.3552702880421285 0.823526253996179 0.4422527913009519
-0.3726770216288677 0.7805990745185701 0.5017737761288324
-0.3910670376049016 0.7297527193908553 0.5608275498230963
-0.410177025109085 0.6695140222690111 0.6192784366162206
-0.4295417259877188 0.5985222755340627 0.6762137171967293
-0.4484674162708539 0.5157851081416153 0.7299607515220845
-0.4660364025057608 0.4209774469678954 0.778195387215756
-0.4811594968623337 0.3147336513380196 0.8181859613160219
-0.4926887863070767 0.1988450450297654 0.8471826296108589
-0.4995822687111964 0.07626440925714317 0.8629028315343694
-0.5010894251070198 -0.04914977665045001 0.8639986617473007
-0.4969032128341512 -0.1731311560933181 0.8503603941064568
-0.4872274854565825 -0.2916236499258155 0.8231433801104157
-0.4727351297865341 -0.4013355248112302 0.7845070385855072
-0.4544359637220768 -0.5000801958106502 0.737161958211334
-0.4334999727416749 -0.5868515981582426 0.6838735083128186
-0.4110888202344584 -0.661678905718542 0.6270462563522353
-0.3882300452380623 -0.7253545904507241 0.5684524167302955
-0.3657465854411013 -0.7791309484010973 0.5091015620500307
-0.3442321920996363 -0.8244474082936243 0.4492111629069391
-0.3240554837293543 -0.8627106833391789 0.3882245745923105
-0.305371641158781 -0.8951144922149221 0.3248356609161228
-0.2881255769542429 -0.9224612243058387 0.2569998862975568
-0.2720338084733836 -0.9449304653735749 0.1819451089102012
-0.2565451164975228 -0.9617290648548563 0.0962382928707462
-0.2408103044664862 -0.970564089705986 -0.00396800150557468
-0.2237929854268659 -0.9669319122706176 -0.1223085307998448
-0.2049868522396762 -0.9433247935036108 -0.2609956405196042
-0.1874896823797746 -0.8883025339482599 -0.4192448296428131
0 0 0
-0.06238797807679927 0.8317568227818987 -0.551623356963109
-0.1487682223213101 0.9103357920458783 -0.3862081844647519
-0.1803593023003918 0.9557736473252917 -0.2323085386984825
-0.1970086192923679 0.9755112279212645 -0.09780310896930031
-0.2089549898476173 0.9777828339182915 0.01668957496451677
-0.2193480040297877 0.9689921895732239 0.1137567126557223
-0.2293773274363685 0.9531505835505047 0.1972054936746964
-0.2395970086720565 0.9323101389949038 0.2709078776313178
-0.2503203474477957 0.9071475142199591 0.3382648534775131
-0.2617518769723467 0.8774214118008704 0.402016941203751