# OOMMF: rectangular mesh v1.0
# Segment count: 1
# Begin: Segment
# Begin: Header
# Title: 
# Desc: time = 2.18e-09
# Desc: stepsize = 8.890871622194555e-14
# Desc: step = 13950
# meshunit: m
# valueunit: (none)
# valuemultiplier: 384000.0000000001
# xmin: 0
# ymin: 0
# zmin: 0
# xmax: 9.357999999999999e-08
# ymax: 9.357999999999999e-08
# zmax: 2.3395e-08
# ValueRangeMaxMag: 1
# ValueRangeMinMag: 0
# meshtype: rectangular
# xbase: 1.16975e-09
# ybase: 1.16975e-09
# zbase: 1.16975e-09
# xstepsize: 2.3395e-09
# ystepsize: 2.3395e-09
# zstepsize: 2.3395e-09
# xnodes: 40
# ynodes: 40
# znodes: 10
# End: Header
# Begin: Data Text
0 0 0
0 0 0
0 0 0
0 0 0
0 0 0
0 0 0
0 0 0
0 0 0
0 0 0
0 0 0
0 0 0
0 0 0
0 0 0
0 0 0
0 0 0
0 0 0
-0.8355692592443211 0.02881973019274225 -0.5486286869618772
-0.8453752444535638 0.04754897496037219 -0.5320524326091316
-0.8558735243641011 0.02844768907911271 -0.5164022068878384
-0.8613704682543886 -0.006369285018269912 -0.5079373471478252
-0.8600708658303762 -0.0456969290528236 -0.5081238986949221
-0.8520512377512898 -0.08087342270149649 -0.5171732569913484
-0.8393190572925452 -0.1005859076222358 -0.5342527447317079
-0.8280323031395872 -0.08213071844922457 -0.5546323557496119
0 0 0
0 0 0
0 0 0
0 0 0
0 0 0
0 0 0
0 0 0
0 0 0
0 0 0
0 0 0
0 0 0
0 0 0
0 0 0
0 0 0
0 0 0
0 0 0
0 0 0
0 0 0
0 0 0
0 0 0
0 0 0
0 0 0
0 0 0
0 0 0
0 0 0
0 0 0
0 0 0
0 0 0
-0.7800134674754878 0.23958854988502 -0.5780798537579896
-0.8080334462583262 0.2693925855174724 -0.5239366226902863
-0.8451893850281996 0.2522245622467228 -0.4712087367983558
-0.8820104141400164 0.2040765709847202 -0.424747433804696
-0.9142719815377874 0.1222338400242379 -0.3862196682302654
-0.9275754093191425 0.0816147408754291 -0.3646133487658688
-0.935899013214386 0.04268522383677981 -0.3496727165941634
-0.9397457909279771 -0.0001838221059254218 -0.3418739747956597
-0.9385916901032001 -0.04489035773607861 -0.3420972011746732
-0.9324549148276037 -0.0880369608598615 -0.3503959550799708
-0.9218605294129147 -0.1274804037124372 -0.3659534273372146
-0.9060885361911123 -0.1686493431221844 -0.3880218597547082
-0.8700480814129069 -0.2502351905043524 -0.4247336641508062
-0.8295659951897403 -0.2996081207823719 -0.4712273693092442
-0.7892017082348883 -0.3184162812252022 -0.5251397295671381
-0.7590129753252581 -0.2900620558132577 -0.5828921916317672
0 0 0
0 0 0
0 0 0
0 0 0
0 0 0
0 0 0
0 0 0
0 0 0
0 0 0
0 0 0
0 0 0
0 0 0
0 0 0
0 0 0
0 0 0
0 0 0
0 0 0
0 0 0
0 0 0
0 0 0
0 0 0
0 0 0
-0.7528909923487498 0.3334571424954818 -0.5674165028961194
-0.7907741254872673 0.3620167166788639 -0.4935789494142777
-0.8462677531702125 0.3249147384065798 -0.4222100220392968
-0.8804685030922635 0.3038569643880826 -0.3639315323729553
-0.9107572273177763 0.2707405525561089 -0.3118025434310127
-0.9377063709243135 0.2220046691842442 -0.267246494436031
-0.9590782420714589 0.1609773349316731 -0.2329275063692895
-0.9715430331339981 0.1076000067704388 -0.2110127325821637
-0.9787129367066595 0.05702005728697827 -0.19715400221658
-0.9817065644689943 0.006203515369052471 -0.1902990742897857
-0.9806539840897042 -0.04505783485230472 -0.1904929263973126
-0.9755395728395172 -0.09604911191111964 -0.1977298913295023
-0.9661707884977625 -0.1469731679117219 -0.2119266273208824
-0.9512678925317422 -0.2008204228691518 -0.2340097314148969
-0.9269718511905074 -0.262361774735033 -0.2681221480190079
-0.8970141706557806 -0.3120796609071346 -0.3130045732745921
-0.863798909288383 -0.3464777168962894 -0.3657931601418127
-0.8267345705439268 -0.3689694128905253 -0.4247016861501366
-0.7678913526178798 -0.4068664489499068 -0.4947752654423775
-0.7273981549554061 -0.3801362446382022 -0.571304086874788
0 0 0
0 0 0
0 0 0
0 0 0
0 0 0
0 0 0
0 0 0
0 0 0
0 0 0
0 0 0
0 0 0
0 0 0
0 0 0
0 0 0
0 0 0
0 0 0
0 0 0
0 0 0
0 0 0
-0.7566732221479313 0.4140938328682894 -0.5059366881979559
-0.8080707875101714 0.4139271954328701 -0.4191489940984823
-0.8480600677003707 0.4042065663772462 -0.3426531384207051
-0.8863287558601268 0.3730516487934676 -0.2743242677342166
-0.9160626892029956 0.3369715930177817 -0.2174380255365509
-0.9408663812329082 0.2935668317482408 -0.1690827252057144
-0.9617344738670328 0.2416596563058725 -0.1291023326273712
-0.9780637822165011 0.1834739454779559 -0.0986334083721334
-0.9890285657613894 0.125429401863702 -0.07803820382403855
-0.9955321928733478 0.06822997032888377 -0.06527115826842916
-0.9981855966724446 0.01123647850309359 -0.05915451078763777
-0.9971872351672941 -0.04580747991260333 -0.05932362769979192
-0.9925170523111411 -0.1028818606261154 -0.06576643236265342
-0.9839258085063609 -0.160241619590333 -0.07882021762321077
-0.9707326909463089 -0.2185191943487577 -0.09963636097985139
-0.9519891924883073 -0.2770255322108108 -0.1302821242104117
-0.9286296751689671 -0.3294585558085332 -0.1705989050379094
-0.901274811532171 -0.3736222405947018 -0.2193402275704203
-0.8688280911707439 -0.4107499322629716 -0.2764457291016909
-0.8274947477055195 -0.44325395563312 -0.3446423847053203
-0.7843845100484399 -0.4547930810870127 -0.4217869056661792
-0.73007186243713 -0.4557925483755781 -0.5091642451339997
0 0 0
0 0 0
0 0 0
0 0 0
0 0 0
0 0 0
0 0 0
0 0 0
0 0 0
0 0 0
0 0 0
0 0 0
0 0 0
0 0 0
0 0 0
0 0 0
-0.6514102349125951 0.5034042559123382 -0.5676696759388
-0.7030153007786544 0.5391589337392074 -0.4637640898563608
-0.7834099338604391 0.5045174757634616 -0.3629476438524523
-0.8331920596894337 0.4780822130586017 -0.2778999626258853
-0.8700270991652983 0.4483476492537385 -0.2050298322846263
-0.9009683874251923 0.4098624075196453 -0.1423684366797928
-0.9264709198971908 0.3654354200363992 -0.09004770051296718
-0.9478147736520538 0.3154032398706658 -0.04656126207473988
-0.9655830083734475 0.2598499501306134 -0.01128970139551791
-0.9796512393759815 0.2000973021031283 0.01563709948014418
-0.9897314547713473 0.1387348366577983 0.03441355160000015
-0.9959654649017299 0.07696939848825274 0.04613571739376059
-0.9985482865697578 0.01508483085597918 0.05170848350751479
-0.9975709366048365 -0.04684677072677542 0.05155197875757521
-0.9930195067331983 -0.1087482655958378 0.04567355884154371
-0.9847752106874186 -0.1705414903740969 0.03366577604231687
-0.9726208847287823 -0.2319367535588982 0.01462726693401705
-0.9564145169549756 -0.2917423833327809 -0.0125560154941275
-0.9364727210442564 -0.3474246748647347 -0.04811380295818756
-0.9128949909627421 -0.3977257657147062 -0.0918528756315506
-0.8850028252124179 -0.4426606683930543 -0.1442966805711484
-0.851376661429582 -0.4820140398034433 -0.2069305337676946
-0.8114751861456312 -0.5130571541788757 -0.2797863092000498
-0.7580199215843415 -0.5409525313905473 -0.3643846281931048
-0.6730268289781192 -0.5766945743402533 -0.4630963780922617
-0.6175714875470942 -0.5432486909771087 -0.5687585757775674
0 0 0
0 0 0
0 0 0
0 0 0
0 0 0
0 0 0
0 0 0
0 0 0
0 0 0
0 0 0
0 0 0
0 0 0
0 0 0
-0.6299926213399448 0.549301996612555 -0.5489777896916095
-0.6933467261965239 0.5732483725113094 -0.4366424403166702
-0.7448677001852769 0.5789290397422708 -0.3316824930016473
-0.7968315337207909 0.5564528469083747 -0.2354139673760593
-0.837579799086277 0.5240877224333224 -0.1542470076119596
-0.8700244552464059 0.4853944344088603 -0.08631158855041554
-0.8972350106277635 0.4405780699922309 -0.02933087018343299
-0.9203819470519879 0.3906068524874956 0.01798216701632869
-0.9401503502984997 0.3359703237087799 0.05693206847309663
-0.9567945710223683 0.2770340174525442 0.08829667058403194
-0.9702062630930647 0.2146396741129868 0.1123815703381173
-0.9801463697880748 0.1501164753758025 0.1295304505203457
-0.9864843610602719 0.08448284322443887 0.1403967755478064
-0.9891754545532698 0.01832765463795129 0.1455885200996397
-0.9882033277260251 -0.04798121514213863 0.145437223793268
-0.9835598644211998 -0.1141262976807759 0.1399470659836398
-0.9752485924997409 -0.1797284901582543 0.12879383779012
-0.9633116474629327 -0.2441855480278505 0.1113736413905366
-0.947889812773507 -0.3064802511375866 0.08703308855169224
-0.9292333903863517 -0.3653113518788315 0.0554339460939413
-0.9074286953117133 -0.419889556085146 0.01630716454507986
-0.8821534371196612 -0.4699352974091589 -0.03108262580498282
-0.8526119419404588 -0.5150759023591869 -0.08803233081878745
-0.817487598603598 -0.554458382345915 -0.1558522645830756
-0.7734927847176055 -0.5879358131871988 -0.2367285186911599
-0.7175555387969644 -0.6120141017648721 -0.3324947939182418
-0.6618115943021675 -0.6086144128676955 -0.4377144161401737
-0.5946461083505586 -0.5863697568344456 -0.5500604640341352
0 0 0
0 0 0
0 0 0
0 0 0
0 0 0
0 0 0
0 0 0
0 0 0
0 0 0
0 0 0
0 0 0
-0.5872928883430397 0.594338608115858 -0.5494075738507739
-0.6560585395408374 0.6223361100936429 -0.426948426357395
-0.7094786597985808 0.6309115626663443 -0.3139914511325435
-0.7535090004585359 0.6220730180982385 -0.2127189375258486
-0.7930754427599666 0.5964405460430089 -0.1236528088116069
-0.8269539766168958 0.5601721148129284 -0.04852135966265864
-0.8559704251400312 0.5168344999755101 0.01402608001753083
-0.8813084649907379 0.4679035254573601 0.06604301931500527
-0.9036174895531937 0.4141990205729835 0.1091540376255707
-0.9231607000969343 0.356175570194895 0.1446142627574434
-0.9399127413011853 0.2942115917391687 0.1732154093202889
-0.9536390145734807 0.2289097484648482 0.1953790084453292
-0.9640189336712861 0.1611361425866036 0.2114299862261393
-0.9707741242666538 0.09175315132750585 0.2217632946990606
-0.9737167064214266 0.0214803646913166 0.2267473694853741
-0.9727512044093181 -0.04907728490384535 0.2265976928979796
-0.967871083714066 -0.1193477349982699 0.2213180595002165
-0.9591629562057117 -0.1887103299282284 0.210700818273443
-0.9468164217188318 -0.2564230713120052 0.1943858844218498
-0.9311219592923088 -0.3216086059276483 0.1719877946742904
-0.9124123536921306 -0.3834042829526453 0.1431951557963933
-0.890917034224916 -0.4412339640944708 0.1076077462702311
-0.8666277054952134 -0.4947750033472796 0.0644524330867409
-0.8392117871346652 -0.5436615891952687 0.0124760878449752
-0.807904964685579 -0.5871915705057335 -0.0499562564990894
-0.7713511057758674 -0.6240336551996548 -0.1248978334339874
-0.728541641729697 -0.6508011496473736 -0.2137403562349746
-0.6806476741546715 -0.661476379766291 -0.314909102248755
-0.6227802369241335 -0.6551972989154614 -0.4276228197729899
-0.54974788330628 -0.6290836484288663 -0.5495734965222492
0 0 0
0 0 0
0 0 0
0 0 0
0 0 0
0 0 0
0 0 0
0 0 0
0 0 0
-0.5441695045834413 0.6174123226855727 -0.5680506791452834
-0.6094784765694072 0.6615055267380775 -0.4369741693665798
-0.6622953020344523 0.6801955136563131 -0.3141639637274096
-0.7056404613760644 0.6783553637848446 -0.2047084260437409
-0.7425635070122779 0.6607677179801481 -0.109478129911565
-0.7755854649191407 0.6306328768945584 -0.02773736083069643
-0.805367632191071 0.5913452335299838 0.04115570191742796
-0.8323965067678079 0.5453119588034712 0.09874676251235476
-0.8570671141631607 0.493834450378945 0.1468451478223111
-0.8795265040785939 0.4375817958723986 0.186963366851298
-0.8996869206006595 0.3769261525046809 0.220204723968674
-0.9172768839835368 0.3121988398799007 0.2472549342017194
-0.9319003495458109 0.2438865679961642 0.2684791993198862
-0.9431165974609863 0.1726859967117762 0.2840961635314203
-0.9505280332251024 0.09940940042272937 0.2943029547266071
-0.9538416161188299 0.02488821206552762 0.2992770426544598
-0.9528993149449306 -0.05005907289041937 0.2991270378933218
-0.9476911959526152 -0.1246147749259716 0.2938580524403757
-0.9383601718242032 -0.1979402905074322 0.2833722451615267
-0.9251961381179334 -0.2691721566967945 0.2675041234651485
-0.9086067227767394 -0.3374665068983168 0.2460694618329567
-0.8890498228730066 -0.4021062718110188 0.2188628762940797
-0.8669352904677321 -0.4626026660062817 0.1855316025519881
-0.8425344696161732 -0.5186476047993468 0.1453971442102422
-0.8159090808955644 -0.5699250694437769 0.0973539261235061
-0.7868437974287086 -0.6158623761047259 0.0398794702398364
-0.7548149403976289 -0.6553031083460358 -0.02884860385784726
-0.7191456235163906 -0.6860331745100409 -0.1103995273943552
-0.6789502637460315 -0.7048554009723114 -0.2054395363102147
-0.6314913694912528 -0.7086662471741699 -0.3146598169041284
-0.5738194658173653 -0.6924973654110819 -0.437239773519957
-0.5039804358017503 -0.6505153528391648 -0.5681843856087686
0 0 0
0 0 0
0 0 0
0 0 0
0 0 0
0 0 0
0 0 0
0 0 0
-0.5775320469127541 0.6728678188073086 -0.4622830660993962
-0.6128232420116138 0.7172422713511515 -0.3316793605840067
-0.6515845095651469 0.7280779129947238 -0.2129323355058922
-0.6867997387716664 0.7185345280725672 -0.1096095378637415
-0.7185173034796982 0.6951845599943953 -0.02124410849297987
-0.74786857960405 0.6616592583246877 0.05384805952162395
-0.7755039125375323 0.6203396637163793 0.117355797723113
-0.8016969773453005 0.5727452388406316 0.1710112508017988
-0.8264749764401824 0.5197150794930303 0.2164147625873811
-0.8496602783142213 0.4616689882810577 0.2548316242434288
-0.8709054802355071 0.3988487034935633 0.2871295112266653
-0.889733625310439 0.3315160194502321 0.3138012186716552
-0.9055867768234847 0.2600979597198634 0.3350546835846588
-0.917890470259038 0.1852455444817087 0.3509432615926921
-0.9261287731074545 0.1078024639980706 0.361474929114628
-0.9299115486322328 0.02873850877900328 0.366658710292775
-0.9290216501909649 -0.0509071431662682 0.3665068024622527
-0.9234408362291348 -0.130065279291854 0.361026377301116
-0.9133556611024205 -0.207671667354782 0.3502198094200905
-0.8991411826080641 -0.2827139022743627 0.3340927763346185
-0.8813177981025346 -0.3542996671570856 0.3126510588500822
-0.8604815183693744 -0.4217344545102167 0.2858524207063938
-0.8372213818162002 -0.4845618865205251 0.2534958302644081
-0.8120441894259001 -0.5425133211653114 0.2150895877949834
-0.7853111734699587 -0.5953718832679405 0.1697606592742302
-0.7571777019822876 -0.6427843818939682 0.1162332397122719
-0.7275340194622619 -0.6840296507818154 0.05289316946820212
-0.6959427433543712 -0.717759916907889 -0.0220090811432858
-0.6615030105966467 -0.7418041014139454 -0.1101836743670351
-0.6227851212948546 -0.7527376885696886 -0.2133650976624695
-0.5796217757709485 -0.744070518933066 -0.3322614330716243
-0.5398413946422145 -0.7021712797880475 -0.4642485998595619
0 0 0
0 0 0
0 0 0
0 0 0
0 0 0
0 0 0
0 0 0
-0.4566715083124651 0.7300745199701434 -0.5083722344758633
-0.5417567605809933 0.7578583968924756 -0.3635247758053837
-0.5887072604594045 0.7731724051946549 -0.2358562980458537
-0.6247908714049626 0.7708775568084392 -0.1240328965157159
-0.6560584437684623 0.754190519986504 -0.02799960575774825
-0.6847911901996174 0.7267564641557981 0.05372213354617179
-0.712203999949742 0.691065523350451 0.1232635586536189
-0.7388706361259207 0.6486186985306055 0.1826580602857151
-0.7649303864044522 0.6002395494545008 0.233653562407665
-0.7902294594328152 0.5463068463650725 0.2776440726166673
-0.8144036357449247 0.4869580329444347 0.3156241312642845
-0.8369293778376976 0.4222704781190329 0.3481908382214082
-0.8571661435777598 0.3524167516910189 0.3755910481249269
-0.8744049057126621 0.277782936206297 0.3978098807448581
-0.8879319044405953 0.1990293045453225 0.4146857472939023
-0.8971056050754376 0.1170850487643126 0.4260195121095872
-0.9014337312512554 0.03309560301815535 0.4316502162901155
-0.9006355592533261 -0.05165213755387439 0.4314946651982661
-0.8946796272843095 -0.1358123836595495 0.4255624054908044
-0.8837916693658715 -0.2180672390065829 0.4139552686360339
-0.8684303950583966 -0.2972166534804148 0.3968512439600253
-0.8492326515099271 -0.3722649890947731 0.3744631911198835
-0.8269364093158276 -0.4424860552935315 0.3469614759863336
-0.8022972049953169 -0.5074392276443255 0.3143638419163883
-0.7760124083728771 -0.5669184273736555 0.2764204022056038
-0.7486557435101563 -0.6208431784868226 0.2325259672286808
-0.7206127213322049 -0.6691126500262187 0.1816743444438
-0.6920026561460094 -0.7114326617143505 0.122457714060412
-0.6625676945674114 -0.7471164979509528 0.05311297962954771
-0.6315091028173819 -0.7748477953443258 -0.02841033454260716
-0.5972841638624932 -0.7923438776603143 -0.124269091624983
-0.5572672445743156 -0.7960959843171559 -0.235975426429634
-0.50531101043878 -0.7826623689669264 -0.3634561857121397
-0.4148829151652126 -0.7559175588697701 -0.5064195996368843
0 0 0
0 0 0
0 0 0
0 0 0
0 0 0
-0.3809996517563612 0.7275764439462519 -0.5705013440615695
-0.455597441227035 0.7843911721585056 -0.4209055245386819
-0.5138154044901325 0.8113120591324606 -0.2788664067522071
-0.5551956839789036 0.8171635159965523 -0.154924306083161
-0.5879271191700527 0.8074263904800044 -0.04903393213717958
-0.6166096097434529 0.7862115770336801 0.04079148575671247
-0.6435517014297122 0.7563867386085771 0.117133723769041
-0.6699035551246457 0.7196529711906383 0.1825618467474697
-0.6961520086936396 0.676850381682176 0.2392612413419753
-0.7223549113350223 0.6282715872805406 0.2889259328723564
-0.7482712788479093 0.5739002165917735 0.3327591240630812
-0.7734379264371837 0.5135958630898733 0.3715010947029865
-0.7972187026188654 0.4472506701078551 0.4054740167788403
-0.8188470554252352 0.3749265609967761 0.4346487934879744
-0.8374777523384961 0.2969664436145327 0.4587395183598166
-0.8522570027791062 0.2140618995514848 0.4773211752838793
-0.8624098225126178 0.1272628617405576 0.4899525100000593
-0.8673326062285834 0.03792900400037234 0.4962817151863164
-0.866673140130557 -0.0523655307717777 0.4961204685993407
-0.8603815693916734 -0.141957980611667 0.4894808339371195
-0.8487213907614313 -0.229236090783457 0.4765740399416445
-0.8322375311946688 -0.3127719348008725 0.4577711311036561
-0.811687632279227 -0.3914302801533761 0.4335268427490866
-0.7879511448922949 -0.4644315374914044 0.4042726063515694
-0.7619346870516785 -0.5313549967730917 0.3702936673394886
-0.7344877362089633 -0.5920818588951254 0.3316124812577541
-0.7063314359366188 -0.6466929501771527 0.2878960416519897
-0.6779921889105323 -0.6953390388266114 0.2383908825018033
-0.6497245805001752 -0.7380905581620629 0.1818798984106948
-0.6214038525855063 -0.7747571743092887 0.1166557878897404
-0.5923648535057986 -0.804650154474604 0.0405217131307285
-0.561147638434967 -0.826258211400136 -0.04909883881220807
-0.5250235353563286 -0.8368960824917214 -0.1547747861634807
-0.4789875007352751 -0.8325104190096601 -0.2783835059405174
-0.4148167984710552 -0.8073824954327939 -0.4195956741613737
-0.3343495846901788 -0.7521847932944037 -0.5678277837110117
0 0 0
0 0 0
0 0 0
0 0 0
-0.4076258610183419 0.7680755072753239 -0.4938635161183791
-0.4439839977163211 0.8275017951048884 -0.3436844321030857
-0.4827211805929046 0.8512135912963507 -0.2059506829300664
-0.5157775763134141 0.8522887889561942 -0.08704775696043969
-0.5443745369423149 0.8387342971738729 0.01345891054613659
-0.5706621330887867 0.8152760155408626 0.09833487856488343
-0.5961413751091861 0.7845143748383656 0.1707414904318698
-0.621648669833108 0.7476813796315473 0.2335069289057455
-0.6475329723866868 0.705161820945807 0.2888734254867606
-0.6737877064950024 0.6568525691352425 0.3384594938787142
-0.7001309555846519 0.6024090972457775 0.3833013495771297
-0.7260536198546619 0.5414282538844996 0.4239122397283705
-0.750853488627462 0.4736023786321028 0.4603475052283693
-0.7736716521729162 0.3988595553095147 0.4922836882960126
-0.7935454646848472 0.3174852867113452 0.5191229991051486
-0.8094866636906531 0.2302068057401181 0.5401260666713893
-0.8205834370452501 0.1382177650273405 0.5545616938428498
-0.8261132310383391 0.04312953623450244 0.5618512014827338
-0.8256443715928428 -0.05314946068017331 0.5616818552227458
-0.8191029547319313 -0.1485886239640941 0.554068380597446
-0.8067881748076451 -0.2412332829485534 0.5393508544430159
-0.7893319220217246 -0.3293887916318193 0.5181294633822894
-0.7676129735125488 -0.4117565372297117 0.4911485283942318
-0.742646652389122 -0.4874996766402637 0.4591514074582242
-0.7154733381609457 -0.556233607749247 0.4227316832118089
-0.6870624614144846 -0.6179533537362587 0.382202599050791
-0.6582367029802748 -0.6729201134772588 0.3374951314128989
-0.6296097724240379 -0.7215266683306051 0.2880812408954934
-0.60152406739792 -0.7641475011271051 0.2329106971829824
-0.5739711842061475 -0.8009599381729529 0.170353330296098
-0.5464776765797171 -0.8317012572470194 0.09815889003936745
-0.5179419296163875 -0.8553093096469526 0.01349601335601964
-0.4864494691858087 -0.8693870750036408 -0.08679301668601
-0.4493605051892384 -0.8694009282648716 -0.2054681540002038
-0.4051917970286358 -0.8474301425258128 -0.3430477534679167
-0.3629922516733414 -0.7901196201139418 -0.4939105294849636
0 0 0
0 0 0
0 0 0
-0.290812129044778 0.7593934877886371 -0.5820221957147782
-0.3696611756949847 0.8269258366933809 -0.423726652209597
-0.4114141215867047 0.8688374557417827 -0.2754267526207023
-0.4433153445645523 0.8848433816117859 -0.1432609342822775
-0.4705975538801412 0.881836423766817 -0.03004103860018385
-0.4954600587441776 0.8661577227960954 0.06549907961107243
-0.5193674397897065 0.8419079528672228 0.1464529323202746
-0.5432760503726884 0.8112498518564681 0.216159225929198
-0.5677278936615603 0.7750325530298827 0.2775060008406834
-0.592937105379852 0.7333000436060958 0.332711038456886
-0.6188479234810695 0.6856422756159032 0.3833039492249116
-0.6451653804059628 0.6314359707014038 0.4301746701399379
-0.6713703934376202 0.5700278646783264 0.4736349103536202
-0.6967325191084554 0.5008973429324168 0.5134838348575639
-0.7203345260754356 0.4238141226846504 0.5490899379488909
-0.7411222618803028 0.3389851784465201 0.5795056874086779
-0.7579888140564202 0.2471671411595236 0.6036235267916328
-0.7698917972568005 0.1497117123889736 0.6203652341083066
-0.7759888316087031 0.0485167327961783 0.6288779371685285
-0.7757638731796194 -0.05412505656042227 0.6286977742299441
-0.7691128847006915 -0.1557592914568519 0.6198422490539343
-0.7563649536052075 -0.2540383780725896 0.602807232391948
-0.7382329581560115 -0.3469657617771998 0.5784694111589578
-0.7157082521732705 -0.4330654546317577 0.5479197110669323
-0.689927675159239 -0.5114511434897344 0.5122670503481659
-0.6620428521159256 -0.5817982848404651 0.472451074418191
-0.6331126893601825 -0.6442442155004982 0.4290894002014784
-0.6040258455814312 -0.6992486999379744 0.3823663603204245
-0.5754476377154886 -0.7474400470734667 0.331953900833349
-0.5477783555363344 -0.7894546813716562 0.2769479721288554
-0.5211073353563553 -0.8257565221294265 0.2158085058530177
-0.4951476447796265 -0.8564004136046111 0.1463117953106963
-0.4691415946058996 -0.8806854873308326 0.06556856423231218
-0.4417488882088863 -0.8966451010520956 -0.02975705841459407
-0.4109779369162765 -0.9003991683848579 -0.1427531888957187
-0.374127918281104 -0.8857677039040177 -0.2746704852787267
-0.3259718700274127 -0.8457061603147957 -0.4225203312935792
-0.2406521107014102 -0.7794581256280799 -0.5783870607191309
0 0 0
0 0 0
-0.3190463759727343 0.7895899704051027 -0.5241727659983232
-0.3470849962913434 0.8639943004189019 -0.3647545122312944
-0.3742175313633204 0.9012884210482346 -0.2182668580080861
-0.3983240257047521 0.9127429935034611 -0.09076452146461238
-0.4205060057179861 0.9071227822325226 0.01740566315402882
-0.4418822624692454 0.8904605014241551 0.1087205662168021
-0.4632939018886899 0.8663222873179075 0.1866666948574951
-0.4853040177159752 0.8364375980339338 0.2546608626859557
-0.508236560412797 0.8013211388817829 0.3155630381413053
-0.5322074878709254 0.7607393014836783 0.3715251068666064
-0.5571359192470736 0.7140282830648342 0.4239848799995147
-0.5827387160345971 0.6603175608113256 0.4737048740709026
-0.6085176352096567 0.5987111571904833 0.5208178548153652
-0.6337507417217942 0.5284627569323446 0.564877961955094
-0.6575018862806972 0.4491594974528356 0.6049355464718869
-0.6786629131328697 0.3609055738611114 0.6396591413354366
-0.6960393906886939 0.2644742574694026 0.6675196879086933
-0.7084801416009441 0.1613823819179052 0.6870310151394978
-0.7150342914709603 0.05384382666815822 0.697012772013792
-0.7151031190197863 -0.0554169270204492 0.6968188382698783
-0.708546249787218 -0.1634676594909141 0.6864696178368211
-0.6957103005745238 -0.2675211254844706 0.6666480518939714
-0.6773714155396235 -0.3652508852682846 0.6385606911019346
-0.6546105351220981 -0.4549991827722757 0.6037058811902704
-0.6286577254676893 -0.535846789247142 0.5636112868487643
-0.6007432463706783 -0.6075581062539747 0.5195966699903896
-0.5719807930328541 -0.6704422081577248 0.4725941365718587
-0.5432912838313938 -0.725175797670381 0.4230303102449769
-0.5153611329009176 -0.7726214476360099 0.3707546376620505
-0.4886210214255858 -0.8136526644152984 0.3149902206591538
-0.4632287432297886 -0.8489735555586805 0.2542892711220863
-0.4390410331723413 -0.8788986386595441 0.1864943810235652
-0.4155641786603276 -0.9030400101203528 0.1087435218125652
-0.3918881543555765 -0.9198441449113636 0.01761884071276229
-0.3666469325280933 -0.9259606273603982 -0.09037114277288222
-0.338131285734897 -0.9155671879085695 -0.217724500303615
-0.3049868618022983 -0.8799753812622201 -0.3641789978848253
-0.2705184244449033 -0.8075292604942679 -0.5241338335591658
0 0 0
0 0 0
-0.3001416142403495 0.8299595892808332 -0.4701936745235807
-0.3126046997595767 0.8972120015103032 -0.3119117279521565
-0.3299832656714121 0.9286487751630192 -0.1694771275572418
-0.3479615874141194 0.9363311292928133 -0.04697605774743446
-0.3658737307221914 0.9289425035090566 0.05658832336932455
-0.384004297391609 0.9119740291706301 0.1443747543826918
-0.4027541748713366 0.8884560738811398 0.2200792571039327
-0.4224380899196754 0.859715248211523 0.2871162694408228
-0.4432503183582998 0.8259725183531952 0.3482794197200655
-0.4652575739059104 0.7867579735799314 0.4056442788103702
-0.488383788786772 0.7411880652957331 0.4605665279994249
-0.5123834674441266 0.6881662298561789 0.5137026594981436
-0.536810006434959 0.6265593333244805 0.5650295733988452
-0.5609896039752317 0.5553858295849823 0.6138707066866061
-0.5840152324002726 0.4740300088786296 0.6589550508243952
-0.6047772683459111 0.3824702650824942 0.6985420187932748
-0.6220448037014246 0.2814806231893741 0.7306359702047095
-0.634600707753935 0.1727431915152587 0.7532872835136186
-0.6414146893958664 0.05880821062590765 0.7649371154481801
-0.6418173565580367 -0.05713098464823745 0.7647264422092229
-0.6356264648072755 -0.1716214151792231 0.7526786080980948
-0.623184743648867 -0.2814016410768397 0.7296943823838556
-0.6052975036294822 -0.383799807569656 0.6973611975220668
-0.5830924220628352 -0.4769826536722267 0.6576403085492071
-0.557845617329133 -0.5600211352761063 0.6125231385594658
-0.5308188341364567 -0.632798895381152 0.5637347987577194
-0.5031373255833262 -0.6958237870090521 0.5125252081968636
-0.4757172789096312 -0.7500051026361299 0.4595491448872294
-0.4492352320597038 -0.7964396703637223 0.404810520796074
-0.4241232565946363 -0.8362220457183027 0.3476379632178519
-0.4005719919941939 -0.870267169184163 0.2866655428718039
-0.3785258543738336 -0.8991113471745555 0.2198111984238164
-0.3576610957934774 -0.9226390946556603 0.1442762682106511
-0.3373545303131806 -0.9396722898838209 0.05663840129866739
-0.3167024061393603 -0.947368814104831 -0.04681790263505033
-0.2948006662600378 -0.940440493865085 -0.1693051820572314
-0.2719323861471476 -0.9103387344323105 -0.3119874451905028
-0.2534021509701738 -0.8447635794022043 -0.4713404765127482
0 0 0
0 0 0
-0.2506904692830633 0.8704453724250593 -0.4236497872470096
-0.2628110223277353 0.9271729384415192 -0.2669844728907823
-0.2774790067564595 0.9520157938331105 -0.1291175011443471
-0.2922124648510903 0.9562858073544527 -0.0113723365273978
-0.3069790452271034 0.9476166860793886 0.08824104518517815
-0.3221470700918812 0.9307049862750078 0.173232484696299
-0.3380541003547851 0.9080361028893337 0.2473658446165673
-0.3549440770975787 0.880574024178052 0.3140128820227265
-0.3729716632059837 0.8482873946104705 0.3758997666803499
-0.3922016525070602 0.810504921010192 0.4350398105794372
-0.4125908795868503 0.7661510795680557 0.4927284133865747
-0.4339554393390362 0.7139228643527626 0.549542373636838
-0.4559303372015086 0.652459788562638 0.6053294573437804
-0.4779321308691341 0.5805440876878991 0.6592036411713098
-0.4991393020324297 0.4973465953037925 0.7095817932460665
-0.5185087786919648 0.4027037447340713 0.7543065294669817
-0.5348457924174229 0.2973752597963877 0.7908905949588789
-0.5469343679712173 0.1832016981171467 0.8168842849136702
-0.5537154108270521 0.06307550244582287 0.8303136303854318
-0.5544743561453307 -0.0593241843806441 0.8300836280308096
-0.5489833359321366 -0.1800037351929132 0.8162205291374518
-0.5375496007159988 -0.2952156173221308 0.7898659165068352
-0.5209543218500364 -0.4019456896140666 0.7530247387346849
-0.5003061127969027 -0.4982030838864429 0.7081578077689252
-0.4768584852097235 -0.5830753486564938 0.6577454848743512
-0.451841298034418 -0.6565917229265263 0.6039261136719851
-0.4263383732798053 -0.7194777451559053 0.5482584843798615
-0.4012201455402676 -0.7728825369014825 0.4916044944519671
-0.3771218965856935 -0.8181319296402815 0.434095865931338
-0.3544493703384934 -0.8565252102606294 0.3751402511789819
-0.3333921729772826 -0.8891627405557693 0.3134314595008594
-0.3139281477795616 -0.9167690460581818 0.2469486469314309
-0.2958068016306603 -0.9394592282931197 0.1729586496360753
-0.2785108783549573 -0.956385790767652 0.08807899781266065
-0.2612271480391664 -0.9652091445515032 -0.01147538241097877
-0.2429587972432356 -0.9613859342475836 -0.1292598478763623
-0.2232504996090138 -0.9373736682320922 -0.2673758039341564
-0.205298785119274 -0.8816819199068254 -0.4248404417401475
0 0 0
-0.08258970809018849 0.8286515158543863 -0.553638515088866
-0.1690447449914445 0.9064934701008817 -0.3869023944811387
-0.2011970966086204 0.9514764925540448 -0.2328351615055457
-0.2188986197664605 0.9707698760271669 -0.09843394771387079
-0.232333146483259 0.9725070672643563 0.01585285987034867
-0.2446102724922622 0.9630576436818835 0.1126312103156078
-0.2568858672357205 0.9464219958508113 0.1956912286851861
-0.2696815287557252 0.9246501619808845 0.2688753447170238
-0.2832771329336786 0.8984222360563484 0.3355466461110664