# OOMMF: rectangular mesh v1.0
# Segment count: 1
# Begin: Segment
# Begin: Header
# Title: 
# Desc: time = 9.199999999999999e-10
# Desc: stepsize = 8.756692432129189e-14
# Desc: step = 5886
# meshunit: m
# valueunit: (none)
# valuemultiplier: 384000.0000000001
# xmin: 0
# ymin: 0
# zmin: 0
# xmax: 9.357999999999999e-08
# ymax: 9.357999999999999e-08
# zmax: 2.3395e-08
# ValueRangeMaxMag: 1
# ValueRangeMinMag: 0
# meshtype: rectangular
# xbase: 1.16975e-09
# ybase: 1.16975e-09
# zbase: 1.16975e-09
# xstepsize: 2.3395e-09
# ystepsize: 2.3395e-09
# zstepsize: 2.3395e-09
# xnodes: 40
# ynodes: 40
# znodes: 10
# End: Header
# Begin: Data Text
0 0 0
0 0 0
0 0 0
0 0 0
0 0 0
0 0 0
0 0 0
0 0 0
0 0 0
0 0 0
0 0 0
0 0 0
0 0 0
0 0 0
0 0 0
0 0 0
-0.84257944371152 0.04435899627470408 -0.5367421731933177
-0.8529032977264929 0.06144558589614652 -0.5184403579016126
-0.8640481140424012 0.04086545061918936 -0.5017478167022348
-0.8702447557097398 0.004606404807790856 -0.4925980574407913
-0.869659700221152 -0.0362089657898469 -0.4923219643766517
-0.8623321905184416 -0.07299241990198421 -0.501054188519084
-0.8502082668560055 -0.09453678387509444 -0.5178886940880832
-0.839307415965015 -0.07838207330856378 -0.5379770553564339
0 0 0
0 0 0
0 0 0
0 0 0
0 0 0
0 0 0
0 0 0
0 0 0
0 0 0
0 0 0
0 0 0
0 0 0
0 0 0
0 0 0
0 0 0
0 0 0
0 0 0
0 0 0
0 0 0
0 0 0
0 0 0
0 0 0
0 0 0
0 0 0
0 0 0
0 0 0
0 0 0
0 0 0
-0.7814257216190105 0.2576398927063667 -0.568326954559134
-0.8098419770448249 0.2862302930889582 -0.5120822116948978
-0.847524765714754 0.2680836506532922 -0.4580752424575619
-0.8849806009019514 0.2191682776982702 -0.4108218617332752
-0.9181192671497524 0.1368080918771393 -0.3719416046711324
-0.9321009846504037 0.09512343029492466 -0.3494843164187397
-0.9410651250539628 0.05496023522932689 -0.3337301349154816
-0.9455618894763184 0.01077060044859615 -0.3252640578606109
-0.9450649253277196 -0.03534160134725044 -0.3249665492470313
-0.9395723582787031 -0.07999691424093948 -0.33287276438682
-0.9295867282752451 -0.1210614853131231 -0.3481560445953871
-0.9144138207298539 -0.1638923804251966 -0.3701170789044899
-0.8793562839242213 -0.2466721363860526 -0.4072902933458202
-0.8397197315638241 -0.2975805222362325 -0.4542208771159574
-0.8000184047574351 -0.318265017533728 -0.5086039035080481
-0.7702165332119203 -0.2922308049527047 -0.5668929780864325
0 0 0
0 0 0
0 0 0
0 0 0
0 0 0
0 0 0
0 0 0
0 0 0
0 0 0
0 0 0
0 0 0
0 0 0
0 0 0
0 0 0
0 0 0
0 0 0
0 0 0
0 0 0
0 0 0
0 0 0
0 0 0
0 0 0
-0.7507326221279301 0.3517819541557383 -0.5591511305571077
-0.7889632073825128 0.3794555197088206 -0.4832706963588899
-0.8450802799135028 0.3419718646981864 -0.4109678384693389
-0.8797310142584409 0.3202359247745196 -0.3514573872258518
-0.9105000230818746 0.2864045745081478 -0.2982651968780668
-0.938026815847112 0.2370002350347269 -0.2528568396251357
-0.9601110038055491 0.1753212727221704 -0.2178286292078676
-0.9732742195755028 0.1210604950133064 -0.1951452024950356
-0.981115062559579 0.06940502042067011 -0.1805441141636004
-0.9847626074356189 0.01736902859709872 -0.173034458539892
-0.984346974380277 -0.03523027000736897 -0.1726842844719854
-0.9798452929319296 -0.08766209694257489 -0.1794952887369778
-0.9710661956522025 -0.1401038017693574 -0.1933943339173359
-0.9567727426098972 -0.1954847192263262 -0.2153407614636373
-0.9332303948449269 -0.2584741178711467 -0.2495439050113502
-0.9040197076901778 -0.3097578110406931 -0.2946157949042157
-0.8714762194137873 -0.3458937396914155 -0.3476876757070047
-0.8350096605463635 -0.3702525787240838 -0.4070281252473989
-0.7769337651179252 -0.4098362568151663 -0.4779206704249323
-0.7368747555177442 -0.385372872642749 -0.5554307731047493
0 0 0
0 0 0
0 0 0
0 0 0
0 0 0
0 0 0
0 0 0
0 0 0
0 0 0
0 0 0
0 0 0
0 0 0
0 0 0
0 0 0
0 0 0
0 0 0
0 0 0
0 0 0
0 0 0
-0.7519030421585129 0.4318186773511397 -0.4981711002090398
-0.8037088091064499 0.4312718297519029 -0.4099472637146598
-0.844009887318577 0.4211306372038015 -0.3321088624484488
-0.8826970285860801 0.3896553843223646 -0.2627063706762635
-0.9128725415382815 0.3531758728521311 -0.2047694453295546
-0.9381760888097538 0.3093003782802434 -0.1554313429824578
-0.9596336063354916 0.2568680339759353 -0.1145519738497602
-0.9766470782758869 0.198068268761858 -0.08324329044945933
-0.9883284295505799 0.1392259916940156 -0.06183072520116348
-0.995540688094382 0.08103126714274056 -0.04829774418961513
-0.9988767078453988 0.02286703335849223 -0.04150206391637075
-0.9985243125196533 -0.03549350057003545 -0.04110241750113754
-0.9944575978722292 -0.09399830023459266 -0.0470999531549907
-0.9864337710827068 -0.1528642819155838 -0.05984084376061512
-0.9738018797606384 -0.2126787232409331 -0.08048390929405158
-0.9556575122841675 -0.2727205555574652 -0.1110955345244034
-0.9328965552626418 -0.3267375553133475 -0.15148130949709
-0.9061140700981588 -0.3725586717301549 -0.2003929342287566
-0.8742334087458542 -0.4114034553412216 -0.2578044684754461
-0.8335365817513075 -0.4456492229876036 -0.3265172842789343
-0.7910076077945152 -0.4591075904316049 -0.4043849463311953
-0.7372883096898786 -0.46207761060266 -0.4928389495305514
0 0 0
0 0 0
0 0 0
0 0 0
0 0 0
0 0 0
0 0 0
0 0 0
0 0 0
0 0 0
0 0 0
0 0 0
0 0 0
0 0 0
0 0 0
0 0 0
-0.6438092241411923 0.5203066187101778 -0.5610621226184289
-0.6956417794927621 0.5555203817607166 -0.4554993085313855
-0.776494457009679 0.5210829943081322 -0.3543005380691856
-0.8265954610583111 0.4946968690318146 -0.2683560163810702
-0.8637273040331831 0.4649310696828015 -0.1944588509458348
-0.8950384995058063 0.4263841585938379 -0.1307770381321535
-0.9209890820817731 0.3818157621908639 -0.07743277360899339
-0.942867591959911 0.3315357565942484 -0.03293548437775561
-0.9612638895042693 0.2756096936292057 0.003321372116835705
-0.976044021795057 0.2153239832055999 0.03120336159140539
-0.9868806607716919 0.1532200920218219 0.05089366164516459
-0.9938735796494901 0.09048989358076184 0.06345775629858297
-0.9971860006376428 0.02743291284301703 0.06976758147771374
-0.9968873778076486 -0.03584582505850104 0.0702184647629463
-0.9929524454991381 -0.09922694372687123 0.06480319911782541
-0.985264141398925 -0.1625851437616794 0.05310972322873116
-0.9736215736034226 -0.2255848470030333 0.03424190731563316
-0.9579033016716537 -0.28700319272567 0.007101549958697689
-0.9384247125184805 -0.3443047229617381 -0.02851870755920448
-0.9152898787749545 -0.3962327395271753 -0.07241584038674141
-0.887848405547555 -0.4427980908334514 -0.125120180310428
-0.854725241054914 -0.4837860958425875 -0.1881376511307748
-0.8153783980630521 -0.5164936481122557 -0.2615193672212894
-0.7626009944875389 -0.5460201509174918 -0.346845380535269
-0.6785644060691955 -0.5832013302336072 -0.4465720045297402
-0.6236248083018812 -0.5519136048428144 -0.5536094934697662
0 0 0
0 0 0
0 0 0
0 0 0
0 0 0
0 0 0
0 0 0
0 0 0
0 0 0
0 0 0
0 0 0
0 0 0
0 0 0
-0.6204416047460192 0.5653101439985522 -0.5435776450448639
-0.6840664803312075 0.5891711010898787 -0.430035421945464
-0.7357151178301525 0.5947836526149604 -0.3239686280771185
-0.7878819053120369 0.5725004741505657 -0.2269037469484608
-0.8288416226953592 0.5404047501497937 -0.1448594853755252
-0.8615426376878522 0.5019718627055012 -0.07595085580707403
-0.889098689691935 0.4573641563386464 -0.01793177305013834
-0.9126971486688827 0.4074991787853712 0.03046857563029489
-0.9330278036750661 0.3528229799759662 0.07053412202728938
-0.9503412503345481 0.2936635442654381 0.1030205352443302
-0.9645116811557556 0.2308240606147448 0.1282086968790259
-0.9752645675499972 0.1655999559221159 0.1464092820831703
-0.982426004176894 0.09899964495496706 0.1582346884087403
-0.9859109309546397 0.03162939434071803 0.1642535163635603
-0.9856714820910134 -0.03610414690066193 0.1647671689660284
-0.9816796571700559 -0.1038311665116612 0.1597627602393887
-0.9739326938476208 -0.1711139504753332 0.148913141822476
-0.962479285940029 -0.2372938022260328 0.1316255125782369
-0.947473810035997 -0.3013083855320921 0.1072689894793223
-0.9291796072231773 -0.361828734827755 0.07553293436328021
-0.9077036806359856 -0.4180497391802809 0.03617241671747921
-0.8827581937337775 -0.4696860713653017 -0.01153107806349196
-0.8535903996267384 -0.5163727458104467 -0.0688666613772152
-0.8189193600654818 -0.5572800846303563 -0.1371495132485867
-0.7755081559038896 -0.5922855622881136 -0.2185976048167067
-0.7203035496539124 -0.6179542765476896 -0.3151115809556909
-0.6652139717168662 -0.6164080014238017 -0.421344927124305
-0.5986275255684118 -0.5961034567409619 -0.5350754661665178
0 0 0
0 0 0
0 0 0
0 0 0
0 0 0
0 0 0
0 0 0
0 0 0
0 0 0
0 0 0
0 0 0
-0.5759728585558987 0.6092236683523824 -0.5450704432696862
-0.6450049165952811 0.637326837627344 -0.4216434033728536
-0.698502079267566 0.6460698050376174 -0.307715212944602
-0.7425406542317209 0.6374920451080388 -0.2055170777261521
-0.7821497382570283 0.6122766913269957 -0.1155813142429534
-0.8161262183660636 0.5765206648583312 -0.03952111697327046
-0.8453257355444932 0.5337093922766341 0.02405588123239412
-0.8709620335723418 0.485247083786704 0.07720365115737617
-0.8937021573729227 0.4318871070871643 0.1215318091647759
-0.9138140579676745 0.3740245426120849 0.1582703667288086
-0.9312647367712432 0.3119854274342124 0.1881783279633393
-0.9457974541528794 0.2463271367575357 0.2116367581843131
-0.9570540142403263 0.1778840435464065 0.2289211237043377
-0.9647085605579366 0.1075111167710506 0.2403721135175103
-0.9685248051091204 0.03594921003210998 0.2463074424096982
-0.968365534984888 -0.03615021920252887 0.2469035283365549
-0.9641944324997466 -0.1081505263680913 0.2421416114235546
-0.9560830521682704 -0.179357607492302 0.2318103664447325
-0.9442206307794704 -0.2489567389838759 0.2155642422224347
-0.9289089299339557 -0.3160078276174773 0.193047281186334
-0.9105005377948248 -0.3796014339921743 0.1639863469512612
-0.8892542637080321 -0.4391324030730733 0.1280218225473808
-0.8652010442099058 -0.4942678324834475 0.08441837993116327
-0.8380528520553009 -0.5446525487814575 0.0319533764700573
-0.8070881506310951 -0.5896170190760331 -0.03099173965382581
-0.7709891915624567 -0.6278838528944768 -0.1064778557647359
-0.7287538752382775 -0.6561441954862359 -0.1959402563408354
-0.6814826243922543 -0.6684641998820765 -0.2978876401052254
-0.62425861544996 -0.6639626608866183 -0.4116488381920442
-0.551824089677061 -0.6397139351016434 -0.5350292097529372
0 0 0
0 0 0
0 0 0
0 0 0
0 0 0
0 0 0
0 0 0
0 0 0
0 0 0
-0.5313194994054821 0.6311533827515495 -0.5651061820514648
-0.5968926582215044 0.6754210225083649 -0.4330422576550936
-0.6497386606294242 0.6943809534428002 -0.3093133756877466
-0.6929866983110997 0.6929466916128415 -0.1989832117207315
-0.7297703912998907 0.6759072500784256 -0.1028813164448431
-0.762681118039779 0.646458229470533 -0.02023041609596557
-0.7924239218398763 0.60794514124717 0.04966923927208167
-0.8195227617910098 0.5627012424767056 0.108396285091357
-0.8444043991714522 0.5119483244054491 0.1577660413344745
-0.8672369968706031 0.4562767369651186 0.1992775214702377
-0.8879403433158657 0.3959843292190481 0.2340050378197921
-0.9062352238434428 0.3313353326978208 0.2625921102612359
-0.9217010016956193 0.262760786157269 0.2853489665853116
-0.9338556074010397 0.1909207575128535 0.3024284524914161
-0.9422478831280697 0.1166192657920467 0.3139568021030834
-0.9465271070642119 0.04071242797495039 0.3200452058710415
-0.9464823459068303 -0.03592548918233406 0.3207499463970528
-0.9420628026269121 -0.1123975328134736 0.3160450450872009
-0.9333872206071535 -0.1877729298430882 0.3058261323454797
-0.9207392505988952 -0.2610953115416319 0.2899456340377667
-0.9045367075524523 -0.3314381077284195 0.2682575729323838
-0.8852611794806571 -0.3980202336389063 0.24060868171898
-0.8633573692200712 -0.4603121338876093 0.2067046018095206
-0.8391392244487754 -0.5179906831504949 0.1659247243806373
-0.8127138805057978 -0.5707512520865045 0.1172141487828772
-0.7839082973627751 -0.6180587015697108 0.0590865698763922
-0.7522323665441278 -0.6588179107084216 -0.01026777742309515
-0.7170221473324012 -0.6908937284859424 -0.09243968938515663
-0.677375227505352 -0.7111674629836504 -0.1881585521720178
-0.6305330019099964 -0.7165851726894733 -0.298217745588631
-0.5734884506083354 -0.702199249100376 -0.4219327097793181
-0.5041600519006569 -0.6621349138985101 -0.5544366490990101
0 0 0
0 0 0
0 0 0
0 0 0
0 0 0
0 0 0
0 0 0
0 0 0
-0.5637930028051166 0.6857889086740758 -0.4602510431575463
-0.5990043177315808 0.7303208533740643 -0.3283675965528592
-0.6375568903565083 0.7415910762839253 -0.2087196376362025
-0.6724779238407512 0.7326930877547113 -0.1045671129146209
-0.7038724610797165 0.7101608027347112 -0.01533599663449633
-0.7329289987543022 0.6775903420111561 0.06071582329360101
-0.7603487585457953 0.6373101305719117 0.1253218370767037
-0.7864514750158824 0.5907681476749899 0.1802417075429657
-0.8113035718888023 0.5387204020549332 0.2270833385571062
-0.834755802093898 0.4814982397492651 0.267099599379953
-0.8564743600500458 0.4192547286335433 0.3011264569832381
-0.8759779664342611 0.3521684947628177 0.3296057548317188
-0.8926842107224183 0.2805964597735308 0.3526762349371639
-0.9059741797609726 0.2051428687033774 0.3703068849300276
-0.9152716242052218 0.1266382524322255 0.3824141824588183
-0.9201184848524289 0.04607917889115077 0.3889198929157355
-0.9202322098494463 -0.03542945840219547 0.38976587002062
-0.9155413411290616 -0.1167216055346649 0.3849157303683605
-0.90619816793812 -0.1966183957093404 0.3743609046018019
-0.8925654850366292 -0.2739902518070698 0.3581287433815175
-0.8751724185167874 -0.3478399164001759 0.3362746354190201
-0.8546412037750158 -0.4173911452516186 0.3088252656042462
-0.8315994840984338 -0.4821357769753659 0.2756581045563114
-0.8065993615408914 -0.5417854462669088 0.23635989544589
-0.7800478258726919 -0.5961349453881075 0.1901276314437331
-0.7521411014321787 -0.6448709990162012 0.1357393022091806
-0.7228007925322779 -0.6873361012866054 0.0716107406946732
-0.6916071345142499 -0.7222627610473564 -0.004009425549505234
-0.6576611228698941 -0.7475671471298847 -0.09287199791968846
-0.619521110565147 -0.7599108308791078 -0.1967971612517566
-0.5769692426447338 -0.7528912658956651 -0.3166405450664593
-0.5376848817253019 -0.7129911018784565 -0.4500429497350136
0 0 0
0 0 0
0 0 0
0 0 0
0 0 0
0 0 0
0 0 0
-0.441528340987723 0.7408797810281734 -0.5061125113729891
-0.5268384395926732 0.7693510161735974 -0.3613035738547434
-0.5735908296827428 0.7852915984642715 -0.2330464878201158
-0.6092793906641758 0.783742623990953 -0.1205243687046967
-0.6400475675603919 0.7679689283789219 -0.02372417131439745
-0.6682417914169584 0.7416115911479034 0.05886557634924248
-0.6951370811117028 0.7071319953570822 0.1294170761754916
-0.7213651555067427 0.6659819184922727 0.1900010438447221
-0.7471204086187606 0.6189160404679587 0.2423923057293685
-0.7722982660799979 0.5662278087607924 0.28799558468105
-0.7965732558800519 0.50795743507491 0.3277961137182245
-0.8194451566615162 0.4440789688017765 0.3623582546209392
-0.8402765167760763 0.3746634405027015 0.3918707461719266
-0.8583377089586288 0.3000081821241613 0.4162348712424367
-0.8728698294765957 0.2207110101070793 0.435183766708974
-0.8831653853454583 0.1376786097428668 0.448401051010007
-0.8886537435870789 0.05208273553045294 0.4556115809199041
-0.8889753317746624 -0.03471368967589684 0.4566375140581576
-0.8840314744946229 -0.1212480493522218 0.4514280259699694
-0.8740020500937341 -0.2060610883158621 0.4400673179344629
-0.8593260167829577 -0.2878073086239802 0.4227596834876242
-0.840646312364437 -0.3653606898491939 0.3997816201640518
-0.8187280285089379 -0.4378945455652421 0.3713930294150354
-0.7943678440824208 -0.5049053923921031 0.3377133000360253
-0.7683102123023613 -0.5661636811554914 0.2985935428175952
-0.741174828926238 -0.6216014559767965 0.2535182496265073
-0.7133864870890321 -0.67116066980834 0.2015516691600197
-0.6850940622237872 -0.7146129413228698 0.1413310652319066
-0.6560581266331156 -0.7513530153189975 0.0711082333467538
-0.6254878803136628 -0.7801536831143614 -0.01118670209745683
-0.5918383787510693 -0.7988200227587507 -0.1077678276528493
-0.5524667368768688 -0.8039112491056987 -0.2202435202359866
-0.5011986528497292 -0.7919862458746546 -0.3486512537292634
-0.4115570348559888 -0.766728748709348 -0.4926944620788256
0 0 0
0 0 0
0 0 0
0 0 0
0 0 0
-0.3648131184622984 0.7367920598492785 -0.5692528868094299
-0.4396440748178151 0.7941643092534106 -0.4195427718190836
-0.4977948183372553 0.8217856069364645 -0.2772521146333153
-0.5387944115255046 0.8284566008360232 -0.1528405791670077
-0.5709303060729248 0.8196894128973666 -0.04634492411738091
-0.5988863612833504 0.7996129482511956 0.04420700462390767
-0.6250412084645686 0.7710906821618769 0.1214193049077549
-0.6506108145299448 0.7357992550285753 0.187896312672907
-0.676147080554417 0.6945341313861556 0.2458606633795173
-0.701772012155333 0.6475220328474002 0.2970374722701242
-0.7273048999327159 0.5946597110618075 0.3426476478450555
-0.7523341584554619 0.5357014042624836 0.3834283759612931
-0.7762603464345971 0.4704207792866931 0.4196714964928392
-0.7983322735648132 0.3987575846772941 0.4512847988212835
-0.8176930376795035 0.3209427827966184 0.4778847416493102
-0.8334475952613956 0.2375841609519051 0.4989177010467514
-0.8447524368102671 0.1496941833878823 0.5137946787997615
-0.8509167528397212 0.05865493100731931 0.5220155924924379
-0.851495765085218 -0.03387407084749925 0.523266193601457
-0.8463570419849437 -0.126090992516185 0.5174754284879416
-0.8357042724802606 -0.2162116914375965 0.5048275680308389
-0.8200527790045852 -0.3026298954350181 0.4857248048389606
-0.8001609934678089 -0.3840513543139831 0.460702660923728
-0.7769341238070698 -0.4595753668487824 0.4303066923136882
-0.7513202540333135 -0.5287075071360373 0.3949509435073091
-0.7242164167470923 -0.5913026812784378 0.3547840481573712
-0.6963889019665276 -0.647456929558461 0.3095836261571073
-0.668401492452832 -0.6973683486141438 0.2586828777441763
-0.640535681900111 -0.7411774323416255 0.2009230051542981
-0.6126833022152433 -0.7787781427570402 0.134624572610349
-0.5841867390104442 -0.8095737075356773 0.05758703006129264
-0.553585855921788 -0.8321458106827156 -0.03280319933400352
-0.518142642717801 -0.8438927297124698 -0.1391878677753519
-0.4728308721002209 -0.8408160924054531 -0.263551257141696
-0.4093856382154138 -0.8171986749777004 -0.4056965920951868
-0.3294598376154084 -0.763681602587176 -0.5551996265023155
0 0 0
0 0 0
0 0 0
0 0 0
-0.3910092003717185 0.776466644056112 -0.4941774538492299
-0.4273006967105335 0.8363667756638494 -0.3433725835828309
-0.4657050437786123 0.8608142275132162 -0.2052259191963458
-0.4981551864850574 0.8628262594563986 -0.08586184350755977
-0.5259244935352254 0.8503952535125123 0.0152098620344104
-0.5512297419852764 0.8282444308238142 0.100781617173872
-0.5756396488675185 0.798965963975137 0.1740470713943778
-0.6000587987868259 0.7637704040000305 0.2378743533299482
-0.6249062218032958 0.7230028960031966 0.2945488521833352
-0.6502471827056336 0.6764982908482488 0.3457291770487182
-0.6758711106030189 0.6238249776733772 0.3924801129777812
-0.7013348674349206 0.5644675711600002 0.4353225985734852
-0.7259899205669456 0.4979851363649226 0.4742883502625894
-0.7490102246308369 0.4241611970448503 0.5089901397079736
-0.769437052063084 0.343142123547559 0.5387208052040888
-0.7862514386937163 0.2555438754453976 0.5625886622341478
-0.7984763884346656 0.1625013200363461 0.5796798927846104
-0.8052970510908513 0.06563900067572614 0.589226765426241
-0.8061770496776894 -0.03304210169907666 0.5907510339290856
-0.8009435022132927 -0.1313493852183659 0.5841548127551994
-0.7898193098208187 -0.2271222076950908 0.5697376243551703
-0.7733930241003579 -0.3184507114165859 0.548135361631753
-0.7525349783963294 -0.4038449867989721 0.5201925921496514
-0.7282807225424456 -0.4823249334735453 0.4867954886015203
-0.7017091255685538 -0.5534211374999414 0.4486973898543273
-0.6738347309308961 -0.6171009300688531 0.4063658419447221
-0.6455228177475332 -0.6736451004724311 0.3598646556370504
-0.6174211149804653 -0.7235006382670012 0.3087685107058694
-0.5898953553165626 -0.7671184127328914 0.2520968278699971
-0.5629499125909475 -0.8047650915819707 0.1882565889548255
-0.5361153950886882 -0.8362741580108339 0.115003546867782
-0.5082866578387188 -0.8606831931092235 0.02948074901449219
-0.4775373548350059 -0.8756947657805082 -0.07153147504284836
-0.4412012630869773 -0.8768680266008482 -0.1909028794324208
-0.3977334970145755 -0.8563572104147444 -0.3293332560237933
-0.3560206598806275 -0.8008692588386169 -0.4815160640990561
0 0 0
0 0 0
0 0 0
-0.2733934747531132 0.7655190202844345 -0.5824402437548228
-0.3525008156932919 0.8339624852758446 -0.4245582976319034
-0.3940461141511873 0.8766634137992779 -0.2760234026819913
-0.4254003042541072 0.8935550781475472 -0.14350576105942
-0.4518445445556687 0.8915968498946064 -0.02985908259297559
-0.4756285189505562 0.8771513812720292 0.06620397490688167
-0.4982758683106943 0.8543264813805213 0.1478087354360388
-0.520806474780374 0.825282418196522 0.2183335660006036
-0.5438295687002456 0.7908534552926831 0.2807137553789062
-0.5676311424051788 0.7510511396126233 0.3372196196225405
-0.5922325976784507 0.7054094871410591 0.3894329283694711
-0.6174199783069341 0.653220480171832 0.4382870916095358
-0.6427550284222139 0.593714460158671 0.4841168384145051
-0.6675805388082086 0.5262245244716502 0.5267105220603887
-0.6910350446537594 0.4503534149314022 0.5653780759102711
-0.7120913807980565 0.3661387525808787 0.5990561570100374
-0.7296315580859067 0.2741928556658625 0.6264631412516869
-0.7425600021036908 0.1757798602613626 0.6463018520801731
-0.7499440852021245 0.07279475069811894 0.6574836829466923
-0.7511547106248162 -0.03237482075364136 0.6593318373075256
-0.7459730428893765 -0.1370905968702898 0.6517134243915124
-0.7346324881783929 -0.2387634280676169 0.6350646681482307
-0.7177841243554905 -0.3351412945530306 0.6103001421501881
-0.6963954486456229 -0.4245219516664848 0.5786315681493188
-0.6716121388204549 -0.5058518185126736 0.5413419184733754
-0.6446157205709732 -0.5787104796679995 0.4995645639106108
-0.6165036790747193 -0.6432068179456765 0.4541015338396603
-0.5882014416447513 -0.6998261178129911 0.4052930654154265
-0.5604032365068821 -0.7492590414013176 0.3529293150065461
-0.5335277172462937 -0.7922262010687813 0.2961854508075729
-0.5076724940285259 -0.8292865617310501 0.2335646320382197
-0.4825500688498759 -0.86059510233199 0.1628542320456268
-0.4573948668360464 -0.8855537029935334 0.08114539362450544
-0.430851065214955 -0.9022991821007835 -0.0149514408467807
-0.4009011157498968 -0.9070473961875778 -0.1286208243630192
-0.3648009620969346 -0.8936804074056073 -0.2612577031830787
-0.3172615096660794 -0.8551175086232961 -0.4100233907111723
-0.2324239489904617 -0.7903192935679163 -0.5668990405266076
0 0 0
0 0 0
-0.3015665723869714 0.7949321205533028 -0.5264413795774435
-0.3295727504939326 0.8700211476571507 -0.3666674307341704
-0.356292788292297 0.908134685548066 -0.2198791529804836
-0.3796371107152975 0.9205448190107859 -0.09204835881285327
-0.4007476980537648 0.9160398129798831 0.01650283431379431
-0.4207893103078547 0.9006731364759079 0.108278610820836
-0.4406551978219047 0.8780253348183131 0.1868007174764772
-0.4609657795242041 0.8498321762538947 0.2555304723730836
-0.4821077769108698 0.8166031153742026 0.3173821724722501
-0.504267222222162 0.7780821626033895 0.374570042623241
-0.5274421985612407 0.7335588513380897 0.4285978754035377
-0.5514376899411406 0.6820841954098371 0.4802891051070103
-0.5758498203046603 0.62264598748405 0.529819741728356
-0.6000507455558032 0.5543426885780437 0.5767523613978449
-0.6231871593950504 0.4765742484795739 0.6200925334587225
-0.6442088060831405 0.3892446795547536 0.6583947095802418
-0.6619400910676401 0.2929453680214594 0.689940814267525
-0.6752003900247386 0.1890694691207999 0.71299170342776
-0.6829609488486745 0.07980302949279321 0.7260825151671745
-0.6845090521858337 -0.03203959117389657 0.7282999533660982
-0.6795761477169764 -0.1433251543832881 0.7194679698048831
-0.6683919422138617 -0.2509902484304703 0.7001829095146439
-0.6516463959115046 -0.3524119217397527 0.6716865430476036
-0.6303736188936465 -0.4456692259229887 0.6356162691971714
-0.6057926534542262 -0.5296505243868077 0.5937049629552268
-0.5791478593300013 -0.6040123941917647 0.5475004883068222
-0.551578839799388 -0.6690347754824706 0.4981498295499864
-0.5240335941711975 -0.7254256688578619 0.4462582112881954
-0.4972196981888249 -0.7741183411920747 0.3918078171285558
-0.4715804058893578 -0.8160779197524453 0.3341088889475243
-0.4472770091666963 -0.8521088106769245 0.2717606517464431
-0.424161923454064 -0.8826280255853423 0.20261893086054
-0.401730181732408 -0.9073506598023556 0.1238048514456337
-0.379054007063226 -0.9248261954169689 0.03185228406073448
-0.3547411370153578 -0.9318035246759917 -0.07681742712723862
-0.3270419822158633 -0.9225423779749266 -0.2048392118435484
-0.294535709592425 -0.8883935368868318 -0.3521443445415408
-0.2604172255440871 -0.8176809728639773 -0.5134011056241885
0 0 0
0 0 0
-0.2826306424583075 0.8341892346924427 -0.4735485620998553
-0.2948751610908404 0.9021771411999643 -0.3148413017186751
-0.3116425460346139 0.934481051984138 -0.1721164924801847
-0.3286525982930338 0.9431613754566717 -0.04933649239575644
-0.3452722269523065 0.9369166165597065 0.05453753670368892
-0.3618242288029854 0.9212611113614463 0.1426926492297231
-0.3787531989449485 0.8992478084878668 0.218859300050823
-0.3964226845409508 0.8722201426745601 0.2864979544326888
-0.4150822862921631 0.8404056530861576 0.3484609502760662
-0.4348631523795809 0.8033248311761026 0.4068946476895203
-0.4557660299340969 0.7600603840669466 0.4632337838825198
-0.4776365295109384 0.7094483548116175 0.5182146056720469
-0.5001329850007431 0.6502455823765677 0.5718808266710852
-0.5226952520097972 0.5813126606371718 0.6235906222108754
-0.5445284808756401 0.501831927139071 0.6720516724323757
-0.5646179092989428 0.4115531349520274 0.7154233946482658
-0.581791910846698 0.3110291385130509 0.7515178291093144
-0.5948406394424756 0.2017754774152448 0.7781074928192867
-0.6026819880101386 0.08627969659915141 0.7933033690101818
-0.6045422257749569 -0.03219112839776835 0.7959223759309313
-0.600103506687899 -0.1499745751149269 0.7857374931107609
-0.5895699531169794 -0.2635042043437155 0.7635265579368066
-0.5736310968580748 -0.369772711836645 0.7309004763292843
-0.5533358066827057 -0.4666471424870173 0.6899709627596657
-0.5299197498486078 -0.5529796801836865 0.6429607546532962
-0.5046336882581286 -0.628532897910865 0.5918540672486482
-0.4786092781277904 -0.6937828235079401 0.5381436171649212
-0.4527750733253222 -0.7496741074436054 0.4826836081781542
-0.4278186986721644 -0.7973804640177163 0.4256237266287518
-0.4041779627542423 -0.8380937552659127 0.3663864514527118
-0.382042997937803 -0.8728324187576485 0.3036555886071725
-0.3613514276283448 -0.9022356841214297 0.2353633702360932
-0.3417672545169678 -0.9262886772955503 0.1586960303662114
-0.3226495898211381 -0.9439125780358185 0.07018751465912959
-0.303070491086518 -0.9523629983305856 -0.03395580721103689
-0.2820898873099157 -0.9464425707920476 -0.1570724535684664
-0.2599288095970733 -0.9176728518241508 -0.3005221305767313
-0.2417707906632509 -0.8537836732487675 -0.4610860267628024
0 0 0
0 0 0
-0.2331539731408112 0.8733541053678653 -0.4276585453907692
-0.2449442595204 0.9309550569763664 -0.270785877804092
-0.2588517939732085 0.9567507286545219 -0.1327546307135553
-0.2724482083250796 0.9620561818866887 -0.01482823907481205
-0.2857344611944688 0.954532443903767 0.08499194797748653
-0.2991120445582162 0.9389113560314796 0.1702276426298951
-0.3129543247759352 0.917712696302463 0.2446691595794231
-0.3275448681731802 0.8919294686339231 0.311730945393333
-0.3430839971631968 0.8615502162651343 0.3741986046794177
-0.3596922221751374 0.8259089822841003 0.4341610971622773
-0.3773966729866817 0.783912752702957 0.49300359772344
-0.3961027725152914 0.7342073439354911 0.5514001901676222
-0.4155558511994114 0.6753353753501502 0.6092909529400578
-0.4353019041079206 0.6059270953872951 0.6658562963249155
-0.4546593286017419 0.5249449817759646 0.7195259974619715
-0.4727197844908541 0.4319748580801087 0.7680714337466208
-0.4883957460609398 0.3275176707564848 0.8088274046864536
-0.5005277542009365 0.2132003790705082 0.8390575460829596
-0.5080454060026532 0.09180737961523697 0.8564235345247014
-0.5101533781964023 -0.03293820899515893 0.8594525031105495
-0.5064898644399416 -0.1568389481283096 0.8478617585253
-0.4972050476660405 -0.2758241564729072 0.822622741772569
-0.4829311098257132 -0.3865123957569344 0.7857389586171345
-0.4646582904463168 -0.4865791667473305 0.7398198345590492
-0.4435601725575981 -0.574866681208272 0.6875919372398576
-0.4208215021246723 -0.6512669477482831 0.6314749608022229
-0.3975053345179895 -0.716467290078538 0.5732923610839907
-0.3744751575145935 -0.7716517132923584 0.5141225435413111
-0.3523644911847436 -0.8182251713986873 0.454254151595453
-0.3315776322167956 -0.857586177927618 0.3931948896425317
-0.3123001450839529 -0.8909389890063025 0.32969127566402
-0.2945024090081286 -0.9191089387690141 0.2617385905121847
-0.2779224751476423 -0.942307179374042 0.1865912042620025
-0.2620277789993646 -0.9597786079475327 0.1008288984317278
-0.2459851584593604 -0.9692734087963555 0.0006006812928259008
-0.2287705114653425 -0.966332458125673 -0.1177524244195398
-0.2098824039034211 -0.9434837020029286 -0.256491482483472
-0.192408654257892 -0.8892921317582477 -0.4148956665952752
0 0 0
-0.06482477026355069 0.8284808238333041 -0.5562528864651106
-0.1514896087332095 0.907793561698057 -0.3911032444066583
-0.1832765139873599 0.95396287737859 -0.2374121900918357
-0.2001313268402999 0.9743340052379331 -0.103056771995573
-0.21231058874873 0.9771370827814088 0.01128429699207391
-0.2229663910924517 0.9688088810018503 0.1081449977352162
-0.2332871892971277 0.9534053149318559 0.1912992231284124
-0.2438245549060113 0.9330246218131255 0.2646027995229053
-0.2548890325100169 0.9083884565398296 0.3314543605555565
-0.2666826762318295 0.8792995638237656 0.3946043933576563