# OOMMF: rectangular mesh v1.0
# Segment count: 1
# Begin: Segment
# Begin: Header
# Title: 
# Desc: time = 1.2999999999999999e-09
# Desc: stepsize = 8.791402172023218e-14
# Desc: step = 8318
# meshunit: m
# valueunit: (none)
# valuemultiplier: 384000.0000000001
# xmin: 0
# ymin: 0
# zmin: 0
# xmax: 9.357999999999999e-08
# ymax: 9.357999999999999e-08
# zmax: 2.3395e-08
# ValueRangeMaxMag: 1
# ValueRangeMinMag: 0
# meshtype: rectangular
# xbase: 1.16975e-09
# ybase: 1.16975e-09
# zbase: 1.16975e-09
# xstepsize: 2.3395e-09
# ystepsize: 2.3395e-09
# zstepsize: 2.3395e-09
# xnodes: 40
# ynodes: 40
# znodes: 10
# End: Header
# Begin: Data Text
0 0 0
0 0 0
0 0 0
0 0 0
0 0 0
0 0 0
0 0 0
0 0 0
0 0 0
0 0 0
0 0 0
0 0 0
0 0 0
0 0 0
0 0 0
0 0 0
-0.8324690190380188 0.02549338485954204 -0.5534847962413069
-0.8422099125174817 0.0449060471823495 -0.5372763815614379
-0.8526457951627439 0.02639086648745473 -0.5218224507984809
-0.8580806856129827 -0.007880588728032557 -0.5134544120944453
-0.8567191467186731 -0.04667121181417013 -0.5136673063700133
-0.84864079263319 -0.08129235598371264 -0.5226857162172387
-0.835861282078602 -0.1003955321142467 -0.5396819936345961
-0.8245579812975045 -0.08120392301071773 -0.5599196892110985
0 0 0
0 0 0
0 0 0
0 0 0
0 0 0
0 0 0
0 0 0
0 0 0
0 0 0
0 0 0
0 0 0
0 0 0
0 0 0
0 0 0
0 0 0
0 0 0
0 0 0
0 0 0
0 0 0
0 0 0
0 0 0
0 0 0
0 0 0
0 0 0
0 0 0
0 0 0
0 0 0
0 0 0
-0.77815269158825 0.2348332493992359 -0.5825218738816234
-0.8061365596457474 0.2652504484506104 -0.5289480568064011
-0.8432680136309028 0.2485817251731578 -0.4765565896060275
-0.8800648125535925 0.2008328072632508 -0.4302930504107301
-0.9122643006653292 0.1192777291099203 -0.3918503146227879
-0.925496243940408 0.07913041045827768 -0.3703985429141167
-0.9337571017867053 0.04070339678576123 -0.3555853039046929
-0.9375433138694618 -0.001660945522336961 -0.3478645941722715
-0.9363287216329628 -0.04585982612758306 -0.3481169363773166
-0.9301336423702232 -0.08848900919761744 -0.3564002000312638
-0.9194878180267094 -0.1274026562002398 -0.3719014865439551
-0.9036708275363077 -0.1680551475556902 -0.3938737143297067
-0.8675238095903598 -0.2493003008561811 -0.4304088751255555
-0.8269401831835671 -0.2982299241696751 -0.4766852690886069
-0.7865029172683266 -0.3164919462997571 -0.5303263231782892
-0.7562850984330651 -0.2874594638056445 -0.5877073306984179
0 0 0
0 0 0
0 0 0
0 0 0
0 0 0
0 0 0
0 0 0
0 0 0
0 0 0
0 0 0
0 0 0
0 0 0
0 0 0
0 0 0
0 0 0
0 0 0
0 0 0
0 0 0
0 0 0
0 0 0
0 0 0
0 0 0
-0.7520697918807552 0.3281782660393396 -0.5715680657978096
-0.7899360666351501 0.3572802548709988 -0.4983491046528536
-0.845398927930434 0.3205235096324401 -0.4272766462457022
-0.8795815505762788 0.2998992390049336 -0.3693192959081474
-0.9098533656472929 0.2672024658288687 -0.3174424282846658
-0.9367712612748523 0.2188463897780041 -0.2730675039814432
-0.958080253595105 0.1581729600039057 -0.238879765561551
-0.9704657233987362 0.1052094499499839 -0.2170881188581931
-0.9775596549264375 0.05508184176366279 -0.2033300562337669
-0.980484019336362 0.004737537817414399 -0.1965417094701284
-0.9793692315321418 -0.0460405173411151 -0.1967642729031459
-0.9742005604090292 -0.09654268756699587 -0.2039921017492442
-0.9647852397406679 -0.1469803605292784 -0.2181426478184048
-0.9498350717857855 -0.20036339094254 -0.2401413083492676
-0.9254614895484012 -0.2614906603344243 -0.2741234501474115
-0.8954129906447149 -0.3107685567983728 -0.3188392703073811
-0.8621134912800003 -0.3446831010053017 -0.3714214426152283
-0.8249790131932438 -0.3666660758684524 -0.4300762916017703
-0.7660506941923723 -0.4041293375979146 -0.4998457886389107
-0.7255144071623008 -0.3767744346751203 -0.575907866220959
0 0 0
0 0 0
0 0 0
0 0 0
0 0 0
0 0 0
0 0 0
0 0 0
0 0 0
0 0 0
0 0 0
0 0 0
0 0 0
0 0 0
0 0 0
0 0 0
0 0 0
0 0 0
0 0 0
-0.7567621407268252 0.4087917448819511 -0.5100983941152155
-0.8081533411495269 0.4090170072526012 -0.423784455787351
-0.8481540425982625 0.3996888460961029 -0.3476831119433177
-0.8864151899876543 0.3688736400136967 -0.2796432524882297
-0.9161243824800656 0.3331418484385955 -0.2230081268573721
-0.9408886027010676 0.2900875929132661 -0.174865164469711
-0.961698128119185 0.2385276770728985 -0.135060200067459
-0.9779458946926641 0.1806978155230826 -0.104738371760067
-0.9888164517725953 0.1230471416376081 -0.08426995691626231
-0.9952286102532223 0.06627955308064083 -0.07160331121442348
-0.9978014698716169 0.009745502611001497 -0.06555342783485228
-0.9967368548423901 -0.04682265487538628 -0.06575166301562274
-0.9920153697098266 -0.103415900131219 -0.07218488664204549
-0.9833849568973974 -0.1603011907769316 -0.08519128349426994
-0.9701557023439371 -0.2181236894685313 -0.105924356510565
-0.9513642085731132 -0.2761997682380907 -0.1364545003701902
-0.9279463014950901 -0.3282044651928588 -0.1766281137561412
-0.9005294273200084 -0.3719312917173333 -0.2251973906868663
-0.8680167728933291 -0.408618192808863 -0.2820958249982954
-0.8266011496982678 -0.4406860509817196 -0.3500376319592486
-0.7834096656360905 -0.4517374553839724 -0.4268519265402952
-0.7290245270762662 -0.4522397054596313 -0.5138117240069668
0 0 0
0 0 0
0 0 0
0 0 0
0 0 0
0 0 0
0 0 0
0 0 0
0 0 0
0 0 0
0 0 0
0 0 0
0 0 0
0 0 0
0 0 0
0 0 0
-0.6523014609774489 0.4978871285589977 -0.5714990911820954
-0.7039332339116122 0.5341170487791953 -0.4681847716427153
-0.7843670399432741 0.4996712515051228 -0.3675554204061343
-0.8341727749259544 0.4734858304115406 -0.2827842816915855
-0.8710153005543413 0.4440176018424949 -0.2101920917976443
-0.9019372990161149 0.4057947966263308 -0.14778258244634
-0.9273931615965404 0.3616414094259448 -0.09569438234498637
-0.9486674263966626 0.3119008482080022 -0.0524211310547651
-0.966345717472825 0.2566616340612516 -0.0173424312868314
-0.9803071145469509 0.1972545744666043 0.009412439674679402
-0.9902732941081226 0.1362809132918976 0.02804132037856518
-0.9963989587367533 0.07494757935357907 0.03964814468990679
-0.9988888094831245 0.01352942737329843 0.04514533070358887
-0.9978391639258261 -0.04791469464810802 0.04495759082275591
-0.993237297582606 -0.1093223558537515 0.03909339076348621
-0.9849612338834594 -0.1706300652445651 0.02714311296458402
-0.9727859921887542 -0.2315602924255671 0.008200266649708443
-0.9565595704063634 -0.2909264940720095 -0.01885638647678058
-0.9365940637533871 -0.3461893343700007 -0.05426328879059327
-0.912986890762416 -0.3960861092073026 -0.09783011493909402
-0.8850542743139274 -0.4406302121468956 -0.1500798043110013
-0.851367951565522 -0.4796028092468649 -0.2124941326475665
-0.8113874403264517 -0.5102633877932309 -0.2850994506453193
-0.7578300391825783 -0.5377942698371775 -0.3694197545378807
-0.6726918809225324 -0.5732343869926223 -0.4678546472036987
-0.6171622923677408 -0.5392342732566621 -0.5730070710076396
0 0 0
0 0 0
0 0 0
0 0 0
0 0 0
0 0 0
0 0 0
0 0 0
0 0 0
0 0 0
0 0 0
0 0 0
0 0 0
-0.6316379417214842 0.5438104368221141 -0.5525429570460452
-0.6950190885112926 0.5680997022301475 -0.4406939923926227
-0.7466074744902176 0.574105824010978 -0.3361246522824744
-0.798628898477278 0.5518490408838634 -0.2401135535377559
-0.8394071886398911 0.5196666371142858 -0.1591922043631622
-0.8718498520810036 0.4811490163622673 -0.09150660894139856
-0.8990241909397135 0.4365157895510974 -0.03477742914268901
-0.9221023281167801 0.3867510568949751 0.01228480656066616
-0.9417745281458483 0.3323564078931762 0.05098976630667026
-0.9583010814200973 0.2737061280812106 0.08212181683245459
-0.9715810199169911 0.2116495738252181 0.1059942434128497
-0.9813859269291353 0.1475207313728831 0.1229605474965474
-0.9875976886873851 0.08233501044506339 0.1336852697732459
-0.9901821044479961 0.01667032212638617 0.1387858075998401
-0.9891295572538142 -0.04912162071715188 0.1385993699300006
-0.9844340339364357 -0.1147418902031852 0.133131256511144
-0.9760964157423154 -0.1798295350591613 0.1220537811598236
-0.9641520411283007 -0.243797297368621 0.1047555219732448
-0.9487328949805603 -0.3056368621377551 0.08057296373096341
-0.930081627142599 -0.3640490206997517 0.04915767874225423
-0.9082774998144978 -0.4182430867196662 0.01023248464108479
-0.882989853695836 -0.4679359716772892 -0.03694380436063221
-0.8534139692414675 -0.5127477424681881 -0.0936714988526381
-0.8182275125593602 -0.5518138868307452 -0.1612611918338286
-0.7741375486134172 -0.5849766938080201 -0.2418952738857177
-0.7180731963049449 -0.6087183787697508 -0.3373911974197391
-0.6622124668074618 -0.6048912084356554 -0.4422457176299482
-0.5949663885840286 -0.5821923673670342 -0.5541363043826367
0 0 0
0 0 0
0 0 0
0 0 0
0 0 0
0 0 0
0 0 0
0 0 0
0 0 0
0 0 0
0 0 0
-0.5896294965174035 0.5889428622219942 -0.5527054928932745
-0.6584274316490707 0.6172361687638426 -0.4306887846481965
-0.7119254638310475 0.6260779919590487 -0.3181013705306412
-0.7560421373918952 0.617457239950857 -0.2171332386350918
-0.7956757469798229 0.5919741540182591 -0.1283226661290452
-0.8295878878248036 0.5558127176425891 -0.05344304707948262
-0.8585992499331244 0.5125711965251762 0.008837222811772388
-0.8838926210556813 0.4637512119474789 0.06056936404290116
-0.9061197002350246 0.4101938835466701 0.1033831066803912
-0.9255490892058821 0.3523701328933527 0.1385430363276426
-0.9421629657412253 0.2906700784503143 0.1668527838526714
-0.9557364493874353 0.2257037201492626 0.1887476358079248
-0.9659611050998995 0.1583389102659807 0.2045676732281084
-0.9725718758292465 0.08943185243724909 0.2147228215994329
-0.975392737649558 0.01968800046424235 0.219593692938162
-0.9743363938018652 -0.05030788635458532 0.2194030726396282
-0.9693995687225297 -0.1200068499811486 0.2141560928812783
-0.9606669398730873 -0.1888110811725295 0.2036403846523028
-0.9483217348528182 -0.2559979018553168 0.1874858966733658
-0.9326453456698174 -0.3207033693801939 0.1652937024469375
-0.9139607224305116 -0.3820713993675086 0.1367378646887918
-0.8924872308729412 -0.4395266398725 0.1014045145500847
-0.8682062447948568 -0.4927419600612942 0.05850877963320183
-0.840775409923339 -0.5413415057541754 0.006788535633159485
-0.8094230165119022 -0.5846072921199353 -0.05539579714173911
-0.7727884934124224 -0.6211869547755784 -0.1300950101502791
-0.7298663384616246 -0.6476662993322935 -0.2186858310221133
-0.6818468592118316 -0.6580010003223405 -0.3195614872880632
-0.6238610706898375 -0.6513397267644915 -0.4319188868480821
-0.5507458033993655 -0.6248129005418835 -0.5534328318363715
0 0 0
0 0 0
0 0 0
0 0 0
0 0 0
0 0 0
0 0 0
0 0 0
0 0 0
-0.5471475444383086 0.6120999576320469 -0.5709318755175392
-0.6124767793881316 0.6564854236516211 -0.4403397361620829
-0.6653812257581301 0.6754263083528343 -0.3179105635134976
-0.7088368318067979 0.6737715233775324 -0.208763694543903
-0.7458656755216225 0.656302373989229 -0.1138050437141306
-0.7789700513651309 0.6262272693022679 -0.03232748456699865
-0.8087992589388386 0.5869643689661512 0.03628482195288484
-0.8358334630580176 0.5409510420457656 0.09356490871069635
-0.8604654042251004 0.4895176081551048 0.1413216170224477
-0.8828434063770407 0.4333581428181507 0.1810752326238634
-0.9028845384206657 0.3728648570361721 0.2139423021945304
-0.9203254605023057 0.3083835337548388 0.2406255241243052
-0.9347813621406847 0.2404090746752377 0.2615096208712047
-0.9458254020598368 0.1696385394057222 0.2768340202479465
-0.9530749955302682 0.09687545123492208 0.2868156199425138
-0.9562508086656603 0.02293331729855367 0.2916478250972464
-0.955204789728067 -0.05139436727544056 0.2914488440411385
-0.9499316290905538 -0.1253187383646613 0.286225634540401
-0.9405730154375659 -0.1980297797258491 0.2758742629757538
-0.9274124456093562 -0.268688745302854 0.2602162828810877
-0.9108475926079438 -0.3364697077978823 0.2390497830467958
-0.8913246555376331 -0.4006655714341762 0.2121496130047001
-0.8692413692518937 -0.4607895688562666 0.179143560348532
-0.8448574470862558 -0.5165282774275544 0.1393356835868589
-0.8182245919038401 -0.567553325725328 0.09160643897627278
-0.7891202670340419 -0.6132733087901769 0.03442459704441534
-0.7570174215731783 -0.6525077431281661 -0.0340333453025595
-0.7212416383878109 -0.6830154927033946 -0.1153270817406066
-0.6809177509042647 -0.7015756560097365 -0.2101014407327681
-0.6333232972239684 -0.7050728145063765 -0.3190202617976122
-0.5755329951822179 -0.6885336203219268 -0.441229220635902
-0.5056333247166196 -0.6461342414226491 -0.5717040169503751
0 0 0
0 0 0
0 0 0
0 0 0
0 0 0
0 0 0
0 0 0
0 0 0
-0.58108040487319 0.6678779535703472 -0.4650640839788577
-0.6164657437173806 0.7125660319935355 -0.3349919952356532
-0.6553637732194886 0.7235939451282238 -0.2165874588365798
-0.6907259001728596 0.7141468132652021 -0.113543207342178
-0.722580564805694 0.6908182249770642 -0.02544616679623433
-0.7520447144077292 0.6572613841650446 0.04935808360183488
-0.7797574339314588 0.6158839663733792 0.1125401448054
-0.8059842625871456 0.5682355075483904 0.1658245350455644
-0.8307476924515225 0.5151852307590328 0.2108137791849291
-0.8538692194728122 0.4571806749082268 0.2487834128862856
-0.8750048825966386 0.3944870717301459 0.2806178997673113
-0.893685595007383 0.3273839074255951 0.3068319319025458
-0.9093655223738989 0.2563081894862562 0.3276590586568948
-0.9214856838268256 0.1819112857373703 0.3431798633713575
-0.9295472240932299 0.105026001036254 0.353428206693952
-0.9331760093167865 0.02660023017119853 0.3584340432916985
-0.932167050725588 -0.05235763446570468 0.3582223717953889
-0.9265083563440317 -0.1308139479442416 0.3528030281161446
-0.9163860160164463 -0.2077400714614898 0.342170618783495
-0.9021685194951268 -0.282154431786747 0.3263140190906117
-0.8843652602388633 -0.3531873981081378 0.3052159044025243
-0.8635589614926127 -0.4201571397086062 0.2788079948238253
-0.8403250100348749 -0.4826099303059213 0.2468633886990951
-0.8151578167512699 -0.5402705225916303 0.2088671736005185
-0.7884087558399213 -0.592907558223928 0.1639276093764745
-0.7602268817400348 -0.640146945178153 0.1107563851834357
-0.7305002117251261 -0.6812421323252902 0.04773466051452468
-0.6987937504377806 -0.7148179068104278 -0.0268822330221838
-0.6642137367989249 -0.7386769134077982 -0.1147890650102866
-0.6253419212446049 -0.74937104625993 -0.2176936300432415
-0.5820307538502131 -0.7403855441963477 -0.3362580073658178
-0.5421463583688276 -0.6980529194736683 -0.4677600321978208
0 0 0
0 0 0
0 0 0
0 0 0
0 0 0
0 0 0
0 0 0
-0.4607279044704304 0.72552802355894 -0.5112131503325629
-0.5458870416177183 0.7534398220509808 -0.3665184474779423
-0.5929860783118229 0.768888951242914 -0.2391177358226186
-0.6292517298104026 0.7666635212949729 -0.1275511883371054
-0.6607106514952935 0.7499679140944698 -0.03177361845074729
-0.6896271716667647 0.7224592847414789 0.04966836004670121
-0.7172021831887933 0.6866491808812613 0.1188862095632667
-0.7439969266285369 0.6440650602770812 0.1779010154483957
-0.7701400551366936 0.5955601830121975 0.2284564813799936
-0.7954700003885962 0.54154437653495 0.2719506696537784
-0.8196187519921357 0.4821853352430505 0.3093903745422602
-0.8420638929563823 0.4175876618157363 0.341392654986026
-0.8621715008961334 0.3479454533115655 0.3682312650527073
-0.8792446035662363 0.2736577350604938 0.3899235452511322
-0.8925860224808915 0.1953860760379481 0.4063428032612783
-0.9015732583320539 0.1140473522562537 0.4173234492619133
-0.9057325140892053 0.03076088207796611 0.4227320440366831
-0.904797699533757 -0.05322368991304108 0.4225024991055802
-0.8987455306539458 -0.136604181949715 0.4166482552506443
-0.8878022898459194 -0.2181063596526778 0.4052612861147709
-0.8724201009101223 -0.2965680294369163 0.388497839690101
-0.8532240034601882 -0.3710210345066279 0.3665408461181366
-0.8309374911819726 -0.4407542263650694 0.3395270205588031
-0.8063015282149026 -0.5053294878174817 0.307440977002796
-0.7800008578826939 -0.5645323623715855 0.2700034694914448
-0.7526000061461949 -0.6182653294177707 0.2265859951291831
-0.7244794335364771 -0.6664044772096613 0.1761664642818894
-0.6957577156314465 -0.7086289515274177 0.1173294941456021
-0.6661802120282463 -0.7442242667404837 0.0483132062338
-0.6349548223248568 -0.7718474368672134 -0.03292275516905565
-0.6005485040494959 -0.7891926043269076 -0.1285166431230804
-0.5603494620046985 -0.7927357344453511 -0.2399552786759108
-0.508229057776036 -0.7790410342403498 -0.3671488687192272
-0.4176704017049621 -0.7520451057650744 -0.5098819416633747
0 0 0
0 0 0
0 0 0
0 0 0
0 0 0
-0.385552741518619 0.7232372820385068 -0.5729545508825545
-0.4601844213960629 0.780247471625908 -0.4236085236698478
-0.5185286969371542 0.8073004344608873 -0.2817694074450219
-0.5601018258568655 0.8132104625731335 -0.1580338199038267
-0.5930645893487162 0.8034503015601321 -0.05236416507088243
-0.6219952571698228 0.7821363912072909 0.0372097515105989
-0.6491851619298126 0.7521520403588768 0.1132516389026694
-0.6757689014933312 0.7152200723367816 0.1783161235027963
-0.7022185062983622 0.6722065489162083 0.234579464161417
-0.728578193008244 0.6234336066118036 0.2837328934400102
-0.7545957177776454 0.5689169518060065 0.3269844104225788
-0.7798004289042292 0.5085491926381672 0.3650876740563119
-0.8035539405070137 0.4422538002893892 0.3983875510420014
-0.8250937357419589 0.3701189633309436 0.4268867299673361
-0.8435852641819339 0.2925045316636232 0.4503387625014537
-0.8581912904319535 0.2101055965051276 0.4683624102593655
-0.8681571379891713 0.1239589837700462 0.4805594178674973
-0.8728998849888486 0.0353942134337852 0.4866138514693739
-0.8720845171211912 -0.05405904448066479 0.4863601697377529
-0.865671634485447 -0.1427906299089004 0.4798160660685648
-0.853926770782604 -0.229241249493827 0.4671803930724217
-0.8373888572699864 -0.3120284612459724 0.4487963247315383
-0.8168036012945653 -0.39004953600502 0.4250802705072262
-0.7930356534557297 -0.4625417250486061 0.3964209945715574
-0.7669769929887696 -0.5290860339535172 0.363062337486611
-0.7394650808761458 -0.5895526541223223 0.3249908647672422
-0.7112131192986572 -0.6440022628327181 0.2818456748006112
-0.6827442321792275 -0.6925598035782522 0.2328545294677543
-0.6543141122390962 -0.7352673650387157 0.1767906797141362
-0.6258028280380799 -0.7719060504428003 0.1119458338185825
-0.5965529089036774 -0.8017600966219711 0.03612996461785624
-0.5651145484629209 -0.8232941256494865 -0.05321963722721225
-0.5287721475890749 -0.833804163290785 -0.1586525550156408
-0.4825381150839134 -0.8292276580026005 -0.2820256348185138
-0.4182128331561068 -0.8038492549135728 -0.422994564454953
-0.3376729318961249 -0.7483397470594479 -0.570933108197165
0 0 0
0 0 0
0 0 0
0 0 0
-0.4126230994013311 0.7640553593027772 -0.4959451439031767
-0.449071876397507 0.8237206795731209 -0.3461483668492707
-0.4879894626735764 0.8475468987969125 -0.2086397341334812
-0.5212928742314314 0.8486260697502007 -0.08993071230597335
-0.5501829095716039 0.8349798618424962 0.01036322019498345
-0.5767907935466866 0.8113514166273106 0.09498030962593686
-0.6025999287550305 0.780360903752123 0.1670634183763804
-0.6284295089542634 0.7432626595219992 0.2294274857897098
-0.6546113244472915 0.7004670411172181 0.284306064328307
-0.681122161559543 0.6519003116632395 0.3333145431658008
-0.7076650848994194 0.59725117323891 0.3774932630909356
-0.7337192014356921 0.5361522792789055 0.4173689816800046
-0.7585754866071137 0.4683318000934961 0.4530215846292157
-0.781374837020697 0.393749444891458 0.4841639585084246
-0.8011619704801299 0.3127128611252007 0.5102451994318867
-0.8169633033246917 0.2259561331004263 0.5305796706764303
-0.8278870960892526 0.1346601283336259 0.544490225776437
-0.8332327652423561 0.04040230859915354 0.551444296721287
-0.8325881277128832 -0.05496074721877867 0.5511590749109632
-0.8258923239815245 -0.149460926589362 0.5436573374943496
-0.8134488846539756 -0.2412065244794453 0.5292639460644843
-0.795885407864509 -0.3285566349052558 0.5085439560235455
-0.7740699929213352 -0.4102499926950136 0.4821935187790323
-0.7490042602702957 -0.4854679646664625 0.4509029533941296
-0.7217153205398309 -0.5538259692107163 0.4152153560815147
-0.6931623476089611 -0.6153047039535784 0.3754012268890877
-0.6641622665842896 -0.6701413840025074 0.3313593353035678
-0.6353278167585272 -0.7186998039341422 0.2825405405917319
-0.6070047713857962 -0.7613239350826574 0.2278839033041485
-0.5791915137004042 -0.7981614279096324 0.165757429561062
-0.5514239598087539 -0.8289217700978347 0.09391653532102545
-0.5226118954204479 -0.8525173054666695 0.009542046158741156
-0.4908545068013349 -0.8665279756518747 -0.0905048096262384
-0.4535288477277014 -0.8663999988132206 -0.2089560392408748
-0.4091738335003464 -0.8441946161659321 -0.3462834446159457
-0.3668726509303288 -0.7865320355158946 -0.4967613260979324
0 0 0
0 0 0
0 0 0
-0.2962072494303306 0.7558198972773603 -0.5839499535615685
-0.3750750723030196 0.8234388035496678 -0.4257548906889684
-0.4169695081586598 0.8654693951086798 -0.2776673466508806
-0.4491063041243762 0.8815207166817496 -0.1456871773926479
-0.4766985269357314 0.8784603420986757 -0.03264876379253372
-0.501928112330934 0.8626351546228439 0.06267982179878136
-0.5262421946094217 0.8381618297426616 0.1433663132506809
-0.5505793777738544 0.8072223389981796 0.2127309196907272
-0.5754633652854996 0.7706872038887406 0.2736478557863036
-0.6010893548186922 0.7286249036605673 0.3283250482209309
-0.6273822905302417 0.6806543251455059 0.3782871279725789
-0.6540284780084729 0.6261861454700939 0.4244262729558881
-0.680492162189366 0.5646054525892074 0.4670664836031133
-0.7060303012694937 0.4954317826731397 0.5060321752681566
-0.7297192599961118 0.4184722731355462 0.5407316878152186
-0.7505064262634596 0.3339619873713609 0.5702714223317003
-0.767294937981275 0.242669096080456 0.5936077728229346
-0.7790597655106024 0.1459339822463268 0.6097287549298401
-0.7849799699782291 0.04561788986557273 0.6178393438890002
-0.7845604457206764 -0.05604540149555919 0.6175142265420079
-0.7777130056771735 -0.1566738539308211 0.6087822141743631
-0.7647744905295718 -0.2539932212914077 0.5921211212017751
-0.7464570227396619 -0.3460688459247397 0.568364554738381
-0.7237446863600505 -0.4314667273629597 0.5385444198432372
-0.697763994664238 -0.5093193764827774 0.503705450128743
-0.669656669347364 -0.5792999814773221 0.4647273143026657
-0.640474785171179 -0.641527554374992 0.4221782165597522
-0.6111045072450699 -0.6964337774214667 0.376206425903687
-0.5822131753235869 -0.7446145615964482 0.3264612888814771
-0.5542069434302946 -0.7866736890301913 0.2720278861464008
-0.5271839799791094 -0.8230443387870253 0.2113647738957782
-0.5008682882546978 -0.8537532991721388 0.1422542160130816
-0.4745147892332691 -0.8780740897841428 0.06181915276558528
-0.4467973914914804 -0.8940167877085962 -0.03325769462261229
-0.4157406691733763 -0.8976817978685614 -0.1460379600334783
-0.3786624329368587 -0.8828795790972674 -0.2777380252960872
-0.330357320616896 -0.8425827893594326 -0.4253448998049733
-0.2449845076173277 -0.7761226734173677 -0.5810474910323359
0 0 0
0 0 0
-0.3247739037753346 0.7863201714744444 -0.5255687389475608
-0.3528747326826537 0.8609097695677492 -0.366488460523589
-0.3801972668831726 0.8983065397824613 -0.2202167088089052
-0.4045983028030897 0.9097651413405445 -0.09288488020381878
-0.427160901545089 0.9040493148387866 0.01511292594788772
-0.4489876149148364 0.8872020943540521 0.1062194211378949
-0.4709031840375005 0.8628048697246476 0.1838965688716812
-0.4934534781811667 0.8326043278487015 0.2515426367805662
-0.5169440780744047 0.7971343248825252 0.3120027054976986
-0.5414711645916478 0.756183779703077 0.3674167514277652
-0.5669326904225259 0.7091164661568587 0.4192149352724496
-0.5930234446619442 0.6550957038864805 0.468158961070658
-0.6192234443032185 0.5932653901738288 0.5143913907202891
-0.6447912947101923 0.52292297801556 0.5574905786910587
-0.6687762131191437 0.4436983554412501 0.5965485279042662
-0.6900627770385018 0.3557301632035018 0.6302931181070599
-0.7074584377693619 0.2598087838828617 0.6572685559542933
-0.7198230933649898 0.1574428460759759 0.6760669082849368
-0.7262239174731355 0.05080845656331842 0.6855780936054079
-0.7260829793529873 -0.05743441696488679 0.6852041993754797
-0.7192785043666898 -0.1644348074180028 0.6749812051201287
-0.7061697240845836 -0.2674882612527739 0.6555717740097343
-0.6875380582376956 -0.3643378207750864 0.6281316508723306
-0.6644636888096718 -0.4533715148019025 0.5940894510254084
-0.6381727830753255 -0.5336890592797593 0.5548977265649756
-0.6098917726435223 -0.6050497847163812 0.5118073696972353
-0.5807329031799189 -0.667740470770831 0.4656951351033969
-0.5516191641113848 -0.7224057597832809 0.4169486971043282
-0.5232425288777001 -0.7698729187227623 0.3653942322902257
-0.4960421476531769 -0.8109811281928919 0.3102447380159853
-0.4701863548558035 -0.8464033654963917 0.2500522637045972
-0.4455439038740663 -0.8764265795181195 0.1826665826987114
-0.42163419394115 -0.9006383582450829 0.1052385583196466
-0.3975614042749654 -0.9174630583319768 0.01436893966346171
-0.3719750478629588 -0.9235309872897645 -0.0934081328522401
-0.3431837188113175 -0.9130060117589285 -0.2205560192669631
-0.3098552626099393 -0.8771952909739745 -0.3667671437383793
-0.275322106680864 -0.8044447372414568 -0.5263709740262409
0 0 0
0 0 0
-0.3061413052969166 0.8271377661440952 -0.4712967398669926
-0.3187114639118068 0.8945586674760261 -0.3133493150059672
-0.3363354981909257 0.9260667434742222 -0.1711105469797523
-0.3546722593039329 0.9337183633278842 -0.04876070615301326
-0.3730397319063006 0.9262047396175247 0.05464557373939554
-0.3917083986262784 0.9090289833260594 0.1422351500819202
-0.4110645883147723 0.8852347868389568 0.2176815940859328
-0.4314073109337764 0.856162912472139 0.2843814329032609
-0.4529135160045911 0.8220502911512252 0.3451125408305882
-0.4756304916076343 0.7824465332964334 0.4019366342913678
-0.49946018399569 0.7364932137566782 0.4561987184258091
-0.5241325073976019 0.6831260176277205 0.5085508418331381
-0.5491742977608935 0.6212516409307977 0.558975839656438
-0.5738848566004315 0.54993414827572 0.6068184274764239
-0.5973325222432667 0.4686046659242022 0.6508483117782233
-0.6183886095270675 0.3772816812749693 0.6893867278832047
-0.6358119010993872 0.2767625201521983 0.7205176846263986
-0.6483856798203185 0.1687256935200982 0.7423797212681019
-0.6550904463253654 0.05568512908441352 0.753495636040505
-0.655275002065083 -0.0592332085792343 0.7530644717884478
-0.6487779911239326 -0.1726636551921674 0.7411304746189258
-0.6359611246792851 -0.2814348615432181 0.7185734942264483
-0.6176440835839565 -0.3829501497237209 0.6869242817373057
-0.5949640473779318 -0.4754248730029986 0.6480655618513855
-0.5692034341323454 -0.5579484904972614 0.603904737954399
-0.5416293016390367 -0.630397109981102 0.5560909847619213
-0.5133730576534477 -0.6932529418066585 0.5058146521720807
-0.4853587045842369 -0.7473903874961142 0.4536899123440137
-0.4582723367704919 -0.793869126659028 0.3996977296514762
-0.4325568785754235 -0.8337488905712863 0.3431578853359413
-0.4084146992730017 -0.8679140541933162 0.2827059036374446
-0.3858024761719113 -0.8968748663234791 0.2162681750440005
-0.3644092007842391 -0.9204934101633961 0.1410596194151712
-0.3436249386499892 -0.9375717457871782 0.05367609374175543
-0.3225600162471506 -0.9452499566318519 -0.04957373706025671
-0.3003261687065262 -0.9382245013499193 -0.1718690706810097
-0.2772267464132407 -0.9079348039550034 -0.3143242320285179
-0.2585977459814131 -0.8420722141579139 -0.4733303200900194
0 0 0
0 0 0
-0.2569204627540854 0.8681660237617234 -0.424593489121047
-0.2691885323280045 0.9250024295545257 -0.2681567440533965
-0.2841536843241945 0.9498660879483436 -0.1304266025421764
-0.2993062412030374 0.9540712620808028 -0.01279847055129526
-0.314599869887286 0.9452582968504881 0.08668145189264249
-0.3303909306103201 0.9281323874183366 0.1714995754968062
-0.3470045617188833 0.9051882900401765 0.2454016986909959
-0.3646711254729836 0.8774001401160691 0.311743427148944
-0.3835299568049177 0.8447485835087734 0.3732353183892677
-0.4036278995590167 0.8065779902806808 0.4318755194409074
-0.4249002422684826 0.7618341859309627 0.4889462723726314
-0.4471371308803585 0.7092431272675137 0.5450161214238325
-0.4699430554805429 0.6474817551505934 0.5999340808394852
-0.4927003635717516 0.575377252049608 0.6528302762281364
-0.5145519427698013 0.4921487729491772 0.7021580188792561
-0.5344214781296212 0.39767686728235 0.745819544489313
-0.5510879889842699 0.2927502948023753 0.7814085316211969
-0.5633207069583196 0.1792122993082023 0.8065684923728708
-0.5700596754648649 0.05992365014422887 0.8194151100402557
-0.5706027876242583 -0.0615020840606726 0.8189199914592507
-0.564744273142385 -0.1811600636333694 0.8051365954279013
-0.5528179650396741 -0.2953958470736085 0.7791877765090119
-0.5356314883304477 -0.4012733777527743 0.7430199088959784
-0.5143171495274081 -0.496851637114101 0.6990109587116919
-0.4901487556369596 -0.5812363597747295 0.649552531688824
-0.464373737594114 -0.6544477721476498 0.5967035657375025
-0.4380916519156205 -0.7171843221787413 0.5419615784747676
-0.4121875110810557 -0.7705593280425609 0.4861478969155382
-0.3873102559530222 -0.8158616299580261 0.4293722934655154
-0.3638785078629627 -0.8543567308722768 0.3710350494611785
-0.3420940400808093 -0.8871163289337555 0.3098326752947236
-0.3219464104810529 -0.9148413455954613 0.2437536074962796
-0.3031966462144228 -0.9376274379209837 0.1700781625666781
-0.285339142569141 -0.9546106285436246 0.08544074899866332
-0.2675726907262548 -0.9634370785688511 -0.01392303186194217
-0.2489134839477357 -0.9595513408686025 -0.1315420151368624
-0.2289226164942317 -0.9354008774514869 -0.2694803037708366
-0.2108277990915613 -0.8794817835549854 -0.4266889165717213
0 0 0
-0.08896036622648984 0.8271372153181998 -0.5549144801467178
-0.1754632881569659 0.9048728536076623 -0.3878372768482563
-0.2078043985946103 0.9498291790368755 -0.2337559893882223
-0.2258427336430642 0.9690788224245365 -0.09940470607019072
-0.2397463454196717 0.9707226096944069 0.01480894614719364
-0.2526126109360208 0.9611229933404164 0.1114874901881089
-0.2655866413856524 0.944282009587889 0.1944099336097461
-0.2791793939903009 0.9222541635995741 0.2674062895566552
-0.2936594898634695 0.8957254075822726 0.3338264492587391