# OOMMF: rectangular mesh v1.0
# Segment count: 1
# Begin: Segment
# Begin: Header
# Title: 
# Desc: time = 2.66e-09
# Desc: stepsize = 8.917810987721864e-14
# Desc: step = 17022
# meshunit: m
# valueunit: (none)
# valuemultiplier: 384000.0000000001
# xmin: 0
# ymin: 0
# zmin: 0
# xmax: 9.357999999999999e-08
# ymax: 9.357999999999999e-08
# zmax: 2.3395e-08
# ValueRangeMaxMag: 1
# ValueRangeMinMag: 0
# meshtype: rectangular
# xbase: 1.16975e-09
# ybase: 1.16975e-09
# zbase: 1.16975e-09
# xstepsize: 2.3395e-09
# ystepsize: 2.3395e-09
# zstepsize: 2.3395e-09
# xnodes: 40
# ynodes: 40
# znodes: 10
# End: Header
# Begin: Data Text
0 0 0
0 0 0
0 0 0
0 0 0
0 0 0
0 0 0
0 0 0
0 0 0
0 0 0
0 0 0
0 0 0
0 0 0
0 0 0
0 0 0
0 0 0
0 0 0
-0.8358253625045095 0.02995126128418799 -0.5481777862534114
-0.8456747783900443 0.04861962373175446 -0.5314793517937753
-0.8562305097993924 0.02945908221493097 -0.515753309794252
-0.861790836968267 -0.005419259650048785 -0.5072348420035618
-0.8605565956980222 -0.04481380425492243 -0.50737960990646
-0.852600926012902 -0.08006618696244514 -0.5163923572897221
-0.8399261149713012 -0.09986901783610667 -0.5334325643093671
-0.8286784740128125 -0.08153276473332587 -0.5537548148618989
0 0 0
0 0 0
0 0 0
0 0 0
0 0 0
0 0 0
0 0 0
0 0 0
0 0 0
0 0 0
0 0 0
0 0 0
0 0 0
0 0 0
0 0 0
0 0 0
0 0 0
0 0 0
0 0 0
0 0 0
0 0 0
0 0 0
0 0 0
0 0 0
0 0 0
0 0 0
0 0 0
0 0 0
-0.7798869629350049 0.2407634533638488 -0.5777623080197665
-0.807942009924941 0.270535858986886 -0.5234883547899355
-0.8451481611825461 0.2533427462666435 -0.4706825241750912
-0.8820307809439867 0.2051766325997379 -0.4241747881503241
-0.9143737584854951 0.1233250255727888 -0.3856313885831649
-0.927736438110469 0.08267079195498116 -0.3639651653106861
-0.9361171469025737 0.04369429643786283 -0.3489634590236986
-0.9400228205579639 0.0007701794760047851 -0.3411106912042248
-0.9389288285170533 -0.04399930905663828 -0.3412868526359196
-0.9328515997359992 -0.0872176806455532 -0.3495439443800973
-0.9223146106852097 -0.1267425102192059 -0.3650645080255321
-0.9066007103450084 -0.1679994538343916 -0.3871063620160118
-0.8706503103466667 -0.2496529029568064 -0.4238413207068082
-0.8302444175915129 -0.2991125949015145 -0.4703465346203914
-0.7899416256489519 -0.3180266942875945 -0.5242625771382079
-0.7597917978550517 -0.2898038472840757 -0.5820052869274777
0 0 0
0 0 0
0 0 0
0 0 0
0 0 0
0 0 0
0 0 0
0 0 0
0 0 0
0 0 0
0 0 0
0 0 0
0 0 0
0 0 0
0 0 0
0 0 0
0 0 0
0 0 0
0 0 0
0 0 0
0 0 0
0 0 0
-0.7525555423210168 0.3345868078529115 -0.5671964595558741
-0.7904718933801119 0.3631356589193625 -0.493240994846597
-0.8460252341870477 0.3260443688911733 -0.4218250497932846
-0.880269500786327 0.3049817321779281 -0.3634717994881314
-0.9106052719001076 0.2718553632881934 -0.3112759229994744
-0.9376097547249287 0.2231091151948264 -0.2666650906317513
-0.9590465551350078 0.1620701909631865 -0.2322992860187694
-0.9715723759108198 0.1086677359957158 -0.2103293643801767
-0.978801234157769 0.05804956919673456 -0.1964138272304193
-0.9818534684317505 0.007183574150547924 -0.1895050468746529
-0.9808592512801043 -0.0441373883947186 -0.189649730091889
-0.9758023716310685 -0.0951978190223805 -0.1968428479080801
-0.9664904351699494 -0.1461995229094056 -0.2110022232727975
-0.9516469896670446 -0.2001299183626769 -0.2330579816994033
-0.9274215285760882 -0.2617538304374376 -0.2671595788754738
-0.8975317215180594 -0.3115626192289108 -0.3120345223978409
-0.8643775708422385 -0.3460629745716763 -0.3648175333717849
-0.8273691497675547 -0.3686672345822353 -0.4237272237635906
-0.7685989697438426 -0.4066710335326623 -0.4938363030338894
-0.728148441151711 -0.3800775369279085 -0.5703866351617531
0 0 0
0 0 0
0 0 0
0 0 0
0 0 0
0 0 0
0 0 0
0 0 0
0 0 0
0 0 0
0 0 0
0 0 0
0 0 0
0 0 0
0 0 0
0 0 0
0 0 0
0 0 0
0 0 0
-0.7562051822755883 0.4151628727351259 -0.5057603300001505
-0.8076442502026122 0.4150132917674591 -0.41889704316335
-0.8476676011762608 0.4053065235939523 -0.3423247870783944
-0.8859787995277149 0.3741685129068698 -0.2739333691547821
-0.9157551448897137 0.3380996167536417 -0.2169819433940514
-0.9406053095289564 0.2947000085138605 -0.1685632126766278
-0.9615266321236987 0.2427928810737009 -0.1285229653283349
-0.977915871649951 0.184600375076784 -0.0979961708263483
-0.9889421954645787 0.1265368699330761 -0.07734180355563354
-0.9955071803951761 0.06930465871162496 -0.06451602950050978
-0.9982212216090899 0.0122650360035419 -0.05834347967928803
-0.9972822596032065 -0.04483730738484396 -0.05846118838339782
-0.9926697819940471 -0.1019809693346112 -0.064858197704403
-0.984134831817549 -0.1594191061034406 -0.0778728541445865
-0.9709983381812415 -0.2177816975407988 -0.09865778968492356
-0.952314037767692 -0.2763773319879663 -0.1292808718790519
-0.9290122106116651 -0.3289055035115392 -0.1695803122247618
-0.901711871665219 -0.3731713039972647 -0.2183091348775588
-0.8693186902591762 -0.4104076319092946 -0.2754098590041301
-0.828044253436353 -0.4430246143111799 -0.3436159272581266
-0.7849870023550628 -0.4546877648586803 -0.4207783770839814
-0.7307307634248514 -0.4558160168618238 -0.5081971174227131
0 0 0
0 0 0
0 0 0
0 0 0
0 0 0
0 0 0
0 0 0
0 0 0
0 0 0
0 0 0
0 0 0
0 0 0
0 0 0
0 0 0
0 0 0
0 0 0
-0.6507677830227426 0.5043669977857421 -0.5675519572023877
-0.702400644636889 0.5401331374130695 -0.4635617847515003
-0.7828492300507054 0.5055375433174149 -0.3627380257232621
-0.8326685824123824 0.4791421377763413 -0.277643374980334
-0.869536309862148 0.4494428247805748 -0.2047138321769572
-0.9005141409016683 0.4109901340578092 -0.1419908157004302
-0.9260574424861033 0.3665902248102632 -0.08960591659961629
-0.9474478579898797 0.3165779054165775 -0.04605416585327005
-0.9652695751719711 0.261035996084195 -0.01071708895427123
-0.9793977163997963 0.201283942240848 0.01627537117384197
-0.9895415677561621 0.1399080140965344 0.03511742123562181
-0.9958405309730405 0.07811336084422181 0.04690351510230682
-0.9984878534601671 0.01618385169046484 0.05253655334115891
-0.9975731873141689 -0.04580729355406458 0.0524349864985289
-0.9930816730283436 -0.1077811154002936 0.04660495529763006
-0.9848942354044047 -0.169657121795184 0.03463821720796688
-0.9727941796344636 -0.2311430092362151 0.0156330851253674
-0.9566400087028537 -0.2910448234510745 -0.01152408310175173
-0.9367473537293134 -0.3468278899577251 -0.04706176822645174
-0.913215819270123 -0.3972338390823288 -0.09078625734499624
-0.8853690784015127 -0.44227716851509 -0.1432218601356997
-0.8517909774017515 -0.4817421416274125 -0.2058558714178488
-0.8119402675169685 -0.5129008535453583 -0.2787215750833004
-0.7585460734687356 -0.5409125450483394 -0.3633475925811138
-0.6736389249823453 -0.5767620579464846 -0.4621213339177982
-0.6182310979774976 -0.543457570177441 -0.5678416847241569
0 0 0
0 0 0
0 0 0
0 0 0
0 0 0
0 0 0
0 0 0
0 0 0
0 0 0
0 0 0
0 0 0
0 0 0
0 0 0
-0.6292572999816441 0.5501820625418612 -0.5489398404898244
-0.6926444094263789 0.5741663950945048 -0.4365508822973136
-0.7441893869338424 0.5798846964943353 -0.3315356619531357
-0.7961839876285007 0.5574579240243565 -0.2352269559094651
-0.8369601464243625 0.5251459536911172 -0.1540111704362908
-0.8694329222958211 0.486505065120225 -0.08601869122762477
-0.8966760737925977 0.4417379899046846 -0.02897528192891248
-0.9198620192367201 0.391810058065247 0.01840499836053386
-0.9396770721965521 0.337208099552808 0.0574255830105246
-0.956376065360889 0.2782950636016975 0.08886326113614666
-0.9698499133590343 0.2159098088290775 0.1130225641580674
-0.979857427222974 0.151378670534851 0.1302456157537528
-0.9862654396157421 0.08571842381154079 0.1411836904136995
-0.989026625279577 0.01951786375278433 0.1464424374374399
-0.9881224536422344 -0.04685387058136938 0.1463513970537825
-0.9835430971790183 -0.1130770431338719 0.1409133006767071
-0.9752910189897617 -0.1787696008729869 0.1298031512777116
-0.9634079419680521 -0.243326038540694 0.1124169752349457
-0.9480346077673899 -0.3057260456550756 0.08810202882704396
-0.9294213822586855 -0.3646659381898016 0.05652121481802267
-0.9076555876517236 -0.419354678127641 0.01740655442832762
-0.8824172566536768 -0.4695116408808287 -0.02997672826027195
-0.8529138865804502 -0.5147638714433599 -0.08692559309475054
-0.8178318824254084 -0.5542590034058223 -0.1547513141530543
-0.77388851403531 -0.5878509603339628 -0.2356434091559888
-0.7180142406610337 -0.6120478645333882 -0.3314407363739073
-0.6623261839852779 -0.6087803710520593 -0.4367041170280126
-0.595215257139427 -0.5866736768304039 -0.5491200183773488
0 0 0
0 0 0
0 0 0
0 0 0
0 0 0
0 0 0
0 0 0
0 0 0
0 0 0
0 0 0
0 0 0
-0.5864720020379143 0.5951230949167667 -0.5494352488895566
-0.6552714138531547 0.6231708855972858 -0.4269395993940847
-0.7087123003356249 0.6317992093406466 -0.3139373097124963
-0.7527577628774709 0.6230167619680055 -0.2126167085028978
-0.7923405889433116 0.5974473912218526 -0.123503060023498
-0.826236816768251 0.5612468293201739 -0.04831893205275195
-0.855274541165814 0.5179780940965885 0.01428822136137296
-0.8806403483551539 0.4691133672142365 0.06637187318309883
-0.9029857171136212 0.4154687283011165 0.1095560609580852
-0.922575068547711 0.3574950254336973 0.1450949678119335
-0.9393833150023526 0.2955669878526601 0.1737790067496518
-0.9531749515774678 0.2302836598732159 0.1960279257674478
-0.9636272526259293 0.1625080386320485 0.212164217945834
-0.9704588926494617 0.09310066183953619 0.2225798832837776
-0.9734787638811491 0.02278095040367258 0.2276403403861771
-0.9725883212097125 -0.04784470587304358 0.2275584354982128
-0.9677784396824105 -0.1182014400817214 0.2223360322765648
-0.9591338452808357 -0.1876648419678827 0.2117644302661965
-0.9468430473835787 -0.255488673020675 0.1954834560250868
-0.9311961971051209 -0.3207913720147083 0.1731084577306407
-0.9125265137294623 -0.3827066026715575 0.1443295465673866
-0.8910648733436739 -0.4406554087497636 0.1087483435855476
-0.8668054766218768 -0.4943134165740086 0.06559353545320734
-0.8394189740539302 -0.5433143291650981 0.01361343902643037
-0.8081445597204467 -0.5869568684738662 -0.0488262751558747
-0.7716297239355087 -0.6239119833767851 -0.1237796677086188
-0.7288672671331611 -0.650796670765487 -0.2126410125596538
-0.6810237442927148 -0.6615977162294402 -0.3138393244791343
-0.6232109487433792 -0.6554529520364846 -0.426602321879563
-0.5502353648130672 -0.6294787068824061 -0.5486324825333294
0 0 0
0 0 0
0 0 0
0 0 0
0 0 0
0 0 0
0 0 0
0 0 0
0 0 0
-0.5432788716584377 0.6180966089783853 -0.5681590002622111
-0.6086198150876252 0.6622467878172816 -0.4370481812207856
-0.6614540760227554 0.6809977872997405 -0.3141982161084618
-0.7048072639285634 0.6792237829325204 -0.2046992267019302
-0.7417338325845442 0.6617081427389956 -0.1094223717178147
-0.774759481060138 0.6316519965780291 -0.02763153499924567
-0.8045482843475478 0.5924482377370989 0.04131759619850327
-0.8315896230319291 0.5465008114592137 0.098972531239906
-0.8562813753242109 0.4951070924140747 0.1471433767254169
-0.8787728534697512 0.4389316803204696 0.1873426059808059
-0.898977681217985 0.3783419970304135 0.2206727485553503
-0.916624672123167 0.3136645617843996 0.2478179838827214
-0.9313167915939099 0.2453815112559684 0.2691411295751028
-0.9426110044507736 0.1741857089813266 0.2848575662940617
-0.9501063354646937 0.1008871123868851 0.2951605357497618
-0.953505784895358 0.02631678254206948 0.3002234919651026
-0.9526473181533697 -0.04870512194441101 0.3001514589529287
-0.9475174392264913 -0.1233574690072551 0.2949468379247283
-0.9382563089377434 -0.1967968768824832 0.284510259899044
-0.925152111176077 -0.2681543866375913 0.2686760058387508
-0.908611891410375 -0.3365805808784983 0.2472608811825127
-0.8890941127228926 -0.4013534230500123 0.2200615562235473
-0.8670103224924325 -0.4619802556783916 0.1867279948344533
-0.8426345215536025 -0.5181505547841371 0.1465846706276664
-0.816031710771731 -0.5695474738021207 0.09852878818184967
-0.7869900620995242 -0.6155991901795026 0.04103997084461438
-0.7549891585336976 -0.6551518126157029 -0.02770330166131427
-0.7193541492142643 -0.6859951854007621 -0.1092712844950368
-0.6791995557267549 -0.7049366521643846 -0.2043337464440164
-0.6317884419768168 -0.7088761295435856 -0.3135888989550034
-0.574169402889161 -0.6928465660162509 -0.4362260110830083
-0.5043814114639317 -0.6510112153022367 -0.5672598957447602
0 0 0
0 0 0
0 0 0
0 0 0
0 0 0
0 0 0
0 0 0
0 0 0
-0.57662869518921 0.6735157146293073 -0.4624672204943416
-0.611926472891113 0.7179491364650349 -0.3318057100535678
-0.6506879589589263 0.7288549131964884 -0.2130157167328394
-0.6858967636357913 0.7193903216882322 -0.1096503292072048
-0.7176043032035073 0.696127122093365 -0.02123897148680593
-0.7469458234259972 0.6626961957472823 0.0539044433097848
-0.7745752958443503 0.6214770249874592 0.1174709261067325
-0.8007699199324616 0.5739860291135749 0.171194549310978
-0.8255601729479481 0.5210580683177934 0.2166769260513981
-0.8487711037592477 0.4631078230551222 0.2551837723062604
-0.8700570699996788 0.4003712959121573 0.2875821975595729
-0.8889416521418426 0.3331042691482195 0.3143633009156143
-0.904865984770423 0.2617279664858944 0.3357320675249988
-0.9172531133661955 0.1868885436055361 0.3517376839194544
-0.9255832453744564 0.1094265683178199 0.3623830597976038
-0.9294614764884539 0.03031107618062147 0.3676718678178613
-0.9286656220864861 -0.04941691851749521 0.3676113851867953
-0.923172787469739 -0.1286839772677145 0.3622049674837627
-0.9131658241619441 -0.2064198257385959 0.3514527466455259
-0.899017415783283 -0.2816050098403783 0.3353599626537839
-0.8812470864671168 -0.3533400657875569 0.3139337039925186
-0.8604514459880434 -0.4209240890024298 0.2871344987885627
-0.8372214184663715 -0.4838957150379636 0.2547650553530724
-0.8120666427685723 -0.5419831215647085 0.2163378460684903
-0.7853517296085392 -0.5949682114376622 0.1709838828063754
-0.7572355496121841 -0.6424985133337356 0.1174307573315984
-0.7276115905652829 -0.6838553841867625 0.05406650343635858
-0.6960450376197634 -0.7176950943858144 -0.02085802242395983
-0.6616367136405542 -0.7418516372164528 -0.1090550664673362
-0.622957841016488 -0.7529059572019774 -0.2122643350302862
-0.5798390718970462 -0.7443731738673863 -0.3312027003636371
-0.5400983754305974 -0.7026275305771429 -0.4632583492310687
0 0 0
0 0 0
0 0 0
0 0 0
0 0 0
0 0 0
0 0 0
-0.4556873814986245 0.7305737798685075 -0.5085380639751245
-0.540809439757523 0.7584436554237294 -0.3637146840816916
-0.587763088872358 0.7738393733810653 -0.2360236758556732
-0.6238348283684996 0.7716299095920506 -0.1241667811349235
-0.6550819273448438 0.7550353369446243 -0.02809463349256658
-0.6837900486824245 0.7277022455728693 0.05367132484940378
-0.7111783547074128 0.692120914969788 0.1232638911321573
-0.7378248178265344 0.6497910572798398 0.1827186911029868
-0.7638728634513623 0.6015333590431469 0.2337859414953863
-0.7891725850970142 0.5477222108951266 0.2778614953955471
-0.8133630896373572 0.4884893473970418 0.3159408835449826
-0.8359232232040549 0.4239053765745343 0.3486209927978313
-0.856213489112832 0.3541354816930948 0.3761469415896257
-0.8735242076017442 0.2795584138767636 0.3985003788761716
-0.8871390854219805 0.2008281003654916 0.4155145210702502
-0.896412279658054 0.1188694265510725 0.4269837049697205
-0.9008458986863196 0.03482642741024806 0.4327398603940655
-0.9001530357838419 -0.05001206247834042 0.4326930849641528
-0.8942963468767995 -0.1342951377224986 0.4268475839768871
-0.883496773537637 -0.2166973196585126 0.4153019658048839
-0.8682098886184927 -0.2960096157546648 0.3982334700723181
-0.8490712965808558 -0.371227327852711 0.3758566274230631
-0.8268195447896387 -0.4416162203147181 0.3483454525450226
-0.8022122297977309 -0.5067294598271159 0.3157226518738736
-0.7759497850231467 -0.5663570268981776 0.2777438553876368
-0.7486094845562232 -0.620416854464993 0.2338092520158875
-0.7205804364934006 -0.6688087179746475 0.1829172854163544
-0.6919852745891915 -0.7112409664589784 0.1236635248657371
-0.6625689926320626 -0.7470309924311868 0.05428652088510517
-0.6315351754764278 -0.7748677001676589 -0.02726480098661865
-0.5973428816566069 -0.7924742152998747 -0.1231507199289894
-0.5573673253272984 -0.7963468282340728 -0.234890173951626
-0.505461937701929 -0.7830451182185463 -0.3624204359148548
-0.4151047096319908 -0.7564339871214057 -0.505465827894382
0 0 0
0 0 0
0 0 0
0 0 0
0 0 0
-0.3799706779153145 0.7279451525077985 -0.5707172144459753
-0.4546002357626489 0.7848428815579424 -0.4211416352159559
-0.5128318801716863 0.8118525969922572 -0.2791036069929946
-0.5542031770309667 0.8177954860322522 -0.1551431003752821
-0.5869096501693672 0.8081547142274549 -0.04922418521429206
-0.615557064728277 0.7870439604142029 0.04063624538062059
-0.6424589177542165 0.7573327487416041 0.1170198559286686
-0.6687700576564826 0.720722761339183 0.1824974281182267
-0.6949820032260187 0.678053175307726 0.2392569887110085
-0.7211573057786096 0.6296139675091313 0.2889954882684971
-0.7470595605686033 0.5753843144573195 0.33291876432476
-0.7722297213115593 0.5152175770844302 0.371768887598626
-0.7960348956279657 0.448998080967152 0.4058684124570276
-0.8177103795321538 0.3767788226233965 0.4351866887071653
-0.8364108721077228 0.2988935032097635 0.4594339199046941
-0.851280246853272 0.2160254250955446 0.4781787919070868
-0.8615389165394405 0.1292185607225572 0.4909717495465874
-0.8665768427106729 0.03983019714325878 0.4974516369187363
-0.866034415672113 -0.05056362268428737 0.4974210600009836
-0.8598545188467268 -0.1402940238514448 0.4908847046816936
-0.8482946003440474 -0.2277393308694299 0.4780492319858663
-0.8318955303438815 -0.3114603815160355 0.4592845058781724
-0.8114132259161904 -0.3903105944802195 0.4350473728742404
-0.7877276159262818 -0.4635004155242541 0.4057740355369466
-0.7617475319740042 -0.530601574275141 0.3717561928310742
-0.734325756578493 -0.5914905667542754 0.333023411588629
-0.706187203880418 -0.6462463421104122 0.2892495434472942
-0.6778620130483544 -0.6950202931035717 0.2396870531344102
-0.6496081699779876 -0.7378855359277798 0.1831233501397952
-0.6213038554613418 -0.7746560411717773 0.1178538801437653
-0.5922864168952073 -0.8046486036285915 0.04168243083115023
-0.5610980199900136 -0.8263582411726672 -0.0479694612154608
-0.5250116663023164 -0.8371060039215971 -0.1536759201855638
-0.4790234869009543 -0.8328433972687217 -0.2773235918978852
-0.4149105486329384 -0.8078525828913594 -0.4185969910891292
-0.3344962077657809 -0.7528011437212337 -0.5669239146502054
0 0 0
0 0 0
0 0 0
0 0 0
-0.4066112688677859 0.7684050221306231 -0.4941872094603066
-0.4429770127559968 0.8279126879350537 -0.343994109434925
-0.4817078410644181 0.8517153709411869 -0.2062485945638733
-0.5147398466519872 0.8528874203460799 -0.08732661956183238
-0.5432970620988575 0.8394366686192672 0.01320536603566603
-0.569533994025431 0.8160913272557767 0.09811205444462208
-0.5949563337605315 0.7854538321623977 0.1705556755421242
-0.620405256362523 0.7487571484278075 0.2333667726048631
-0.6462346592785991 0.706385568254163 0.2887909176364717
-0.6724431288470101 0.6582336573409264 0.3384504259267974
-0.6987540106111848 0.6039524979608221 0.3833852016727651
-0.7246632650143167 0.5431322876228315 0.4241113892368126
-0.7494730269550923 0.4754565180054333 0.4606856643666262
-0.7723273618968655 0.4008426609596866 0.492783529777716
-0.7922645110179274 0.3195648062863595 0.5198031157704668
-0.8082944489184521 0.2323394691541933 0.5409976477959608
-0.819500751186084 0.140352139662113 0.5556255894914401
-0.8251537800136592 0.04521035200353363 0.5630961404599446
-0.824813260509338 -0.05117583883678269 0.5630844686255393
-0.8183965420794918 -0.1467686654024888 0.5555952292526479
-0.8061953275676517 -0.2396018850504371 0.5409621340614919
-0.7888363397374182 -0.3279668870608177 0.5197835608224916
-0.767195974393664 -0.4105509953711088 0.4928064702030068
-0.7422898112749257 -0.4865051813504868 0.4607803648123088
-0.7151605107287026 -0.555435792939462 0.4243071102585623
-0.6867810097843394 -0.6173323973713046 0.3837089466710416
-0.657977954365869 -0.6724541477590003 0.3389254058494621
-0.629368914851516 -0.7211946413928755 0.2894357584073299
-0.6012997165797604 -0.7639313906072941 0.2341953912567557
-0.5737648493480187 -0.8008463969170826 0.171577813826763
-0.546293260150343 -0.8316828498652432 0.09933434025721651
-0.5177852984741983 -0.8553854499309737 0.0146327280563295
-0.4863279420475405 -0.869564591242164 -0.08568870661674988
-0.4492817706522453 -0.8696938194730458 -0.2043980208562876
-0.4051606333783297 -0.8478576101414129 -0.342026803168643
-0.3630004744289745 -0.7907022036627964 -0.4929712777506782
0 0 0
0 0 0
0 0 0
-0.2897603764089539 0.7595534953199115 -0.5823378847461721
-0.3686423594786382 0.8271916015003844 -0.4240953491907813
-0.410396136068778 0.8692008188552482 -0.2757987454670203
-0.4422767738372625 0.8853043940531702 -0.1436223701038638
-0.4695196984555977 0.8823989893702116 -0.03038546232317757
-0.4943272570580515 0.866829100703073 0.06517570946114894
-0.5181679044621128 0.8426985692647428 0.1461545214644346
-0.5420022836821505 0.8121726783312826 0.2158913269576247
-0.5663769901836013 0.776102075839417 0.2772772490997263
-0.5915111440968593 0.7345308325122378 0.3325342425948079
-0.6173544307081925 0.6870471134286855 0.3831967781887969
-0.643617742593565 0.6330235076432461 0.4301597844868856
-0.6697879868214316 0.5717998783288253 0.4737393290120989
-0.6951403091992158 0.5028458371912126 0.5137373011042575
-0.7187618711732552 0.4259187517838561 0.5495221464385235
-0.739600792434873 0.3412116848468211 0.5801424428135739
-0.7565494485984338 0.2494676100972937 0.6044822936511455
-0.7685612971835135 0.1520272327263779 0.6214509256418839
-0.7747865563743949 0.05078253352029892 0.6301800745427972
-0.7746995471029586 -0.05197273137332213 0.6301900085784178
-0.7681859780244613 -0.1537759981023027 0.6214847106520333
-0.7555658559083706 -0.2522656757182506 0.6045512933075782
-0.737545551732386 -0.3454280713413488 0.5802637388715285
-0.7151131502320293 -0.4317699831147446 0.5497161668045755
-0.6894053056936503 -0.5103903800185973 0.5140252760963371
-0.6615758184209408 -0.5809540453852161 0.4741411536992056
-0.6326871564679679 -0.6435921299507509 0.4306926192842548
-0.6036320342285436 -0.6987623068341884 0.3838744662007011
-0.5750796609351509 -0.7470940613842242 0.3333674354569388
-0.5474337026928187 -0.789227363022143 0.2782741644729966
-0.5207862376787927 -0.8256313099620282 0.2170590579882647
-0.4948524860424312 -0.8563670805561944 0.1475006454131142
-0.4688763951165127 -0.8807410332191603 0.06670950836716753
-0.4415187691909209 -0.8967943847743133 -0.02865323523434039
-0.4107882653709951 -0.9006548091400908 -0.1416824470649584
-0.3739827002968463 -0.8861479022394069 -0.2736399737526977
-0.3258719995240567 -0.8462280610128063 -0.4215513120376906
-0.2406019687409888 -0.7801228057907321 -0.5775111258869002
0 0 0
0 0 0
-0.3180312649596946 0.7897115138947621 -0.5246063660785852
-0.3460767080561931 0.8642127635869082 -0.3651947581694823
-0.3731953019622935 0.9016061482444682 -0.2187044124864561
-0.3972671401248585 0.9131608956563937 -0.09119209407085858
-0.4193956086521365 0.9076445409647736 0.01699148905036084
-0.4407022191485797 0.8910937183284529 0.1083214622920518
-0.4620314242509202 0.8670784069316729 0.1862847262592875
-0.4839500937726146 0.8373312786702436 0.2543002880413856
-0.506786394078372 0.8023692686415469 0.3152318313823488
-0.5306610721936608 0.7619596263964508 0.3712362511932999
-0.5554987650468307 0.7154375020991061 0.4237573629114155
-0.5810226024444928 0.6619287736267472 0.473564181599093
-0.6067411691903889 0.6005306485772384 0.5207956352820947
-0.6319393912088133 0.5304863459984461 0.5650104800336455
-0.6556871542010867 0.4513689823545328 0.6052606030330349
-0.6768803606813693 0.3632661734470636 0.6402114217608013
-0.6943254884369805 0.266934138222475 0.6683249822939229
-0.706868272183626 0.1638752335944207 0.6881003949966229
-0.7135506837643266 0.05629477259953148 0.6983382563467564
-0.7137637088616891 -0.05308285477753601 0.6983720916822725
-0.7073553734881083 -0.1613163543384686 0.6882044822728515
-0.6946615552259718 -0.2656018740780012 0.6685065206692353
-0.6764503389315815 -0.3635922852064907 0.6404807484208015
-0.6537981986232808 -0.4536090649191586 0.6056292031434076
-0.6279342562689634 -0.5347154492906205 0.5654891317203833
-0.6000905320367308 -0.606663417677175 0.5213931827441957
-0.5713840857347717 -0.6697551431243345 0.4742871227722089
-0.5427397707009693 -0.7246652888124148 0.4246101276346079
-0.514847779233338 -0.7722580889486573 0.3722219878941423
-0.4881420073140902 -0.8134112229203629 0.3163535413466551
-0.4627827773957541 -0.8488345502399092 0.2555621397329472
-0.4386286955408453 -0.8788493453837085 0.1876930887559875
-0.4151873570389149 -0.9030751987176044 0.1098846850848618
-0.3915495032410024 -0.9199666682743842 0.01871672449582761
-0.366349160182052 -0.9261816043128812 -0.08930805487928786
-0.3378758758988417 -0.9159049556365991 -0.2166979573644139
-0.3047717293050178 -0.8804519186340471 -0.3632060186589059
-0.2703336179220667 -0.8081633908508018 -0.5232510570555016
0 0 0
0 0 0
-0.2991558842269008 0.830028218893628 -0.4707004490891125
-0.3116121969330571 0.897381127451975 -0.3124179105230288
-0.3289636700454208 0.9289186956446548 -0.1699792948334587
-0.3468947181363815 0.9367019607954267 -0.04747095081292011
-0.3647407257012648 0.9294174766816679 0.05610131062279597
-0.3827884992747149 0.9125608052521629 0.1438948975486435
-0.4014416711647468 0.8891667910337401 0.2196064716150587
-0.4210181349299976 0.8605659843006916 0.2866529551995711
-0.4417158291165935 0.8269824226115925 0.3478321419870524
-0.4636058434457513 0.7879479983069611 0.4052253371730424
-0.4866174270350013 0.7425790986343376 0.4601953519726699
-0.5105114960371807 0.6897764000883675 0.513406788321903
-0.5348488686672559 0.6284003818922529 0.5648447996777758
-0.5589637571151198 0.5574586905211425 0.6138398216100042
-0.5819568600963512 0.4763201699672935 0.6591246533616566
-0.6027247112524484 0.3849439675047379 0.6989571262440659
-0.6200394787641483 0.2840833612266493 0.7313328166081785
-0.6326827583586658 0.1754019051634315 0.7542855553042944
-0.6396181225755024 0.06143784521138797 0.7662336774436179
-0.6401658931207438 -0.05461731538292672 0.7662927496363786
-0.6341312794712457 -0.1693009791173074 0.7544631858918506
-0.6218447325156349 -0.279332492654181 0.7316300207004628
-0.6041017881174192 -0.382015532305991 0.6993748370296906
-0.5820241279834939 -0.4754922340359399 0.6596628304039603
-0.5568857313445806 -0.558812978082991 0.6144968167133414
-0.5299492622857669 -0.6318471279329229 0.5656173497389269
-0.502342752078987 -0.6950949054213879 0.514290610346855
-0.4749859097303865 -0.749463652750993 0.4611860999235942
-0.4485587222637177 -0.7960523914470921 0.4063196558776178
-0.4234961999421389 -0.8359605083211136 0.3490286480535266
-0.3999912465121498 -0.8701092708200853 0.2879528773021648
-0.3779898944333336 -0.8990421248685264 0.2210133421722804
-0.357169445833206 -0.9226512514704552 0.1454120184964177
-0.3369072627481677 -0.9397666512355616 0.0577246700556594
-0.3162995363067096 -0.9475546338083143 -0.04576919576037071
-0.2944410794445763 -0.9407350755934656 -0.1682913196919811
-0.2716115173802809 -0.9107653231703973 -0.3110204329890607
-0.2531070012667942 -0.8453462866802015 -0.4704535062104701
0 0 0
0 0 0
-0.2497277692766749 0.8704517551035079 -0.4242048836226637
-0.2618356288322748 0.9272866429794369 -0.2675473513715524
-0.276468089617681 0.9522332033215815 -0.1296816174909496
-0.2911449631622259 0.9566045007605076 -0.01193480414608512
-0.3058355942119117 0.9480384829696664 0.08767909740422687
-0.3209103010794485 0.931236980033352 0.1726680795035936
-0.3367088985270436 0.9086906130691754 0.2467964492707916
-0.3534778659377236 0.8813681077118861 0.3134384421229803
-0.3713748732101289 0.8492421013984318 0.3753246018588918
-0.3904684694548376 0.8116441838983883 0.4344745022501493
-0.4107203325773683 0.7674999530196309 0.4921916603543786
-0.4319527558349002 0.7155047935495598 0.5490625712377746
-0.4538083961005686 0.6542926605393387 0.6049454967127059
-0.4757126415809574 0.5826351067366888 0.658964198601103
-0.496853225377386 0.4996865075484547 0.7095422937402081
-0.5161954040682749 0.4052616292239608 0.7545232380102888
-0.5325500769922878 0.3000956868240717 0.7914120255878705
-0.5447025326614213 0.1860062007035382 0.817741306411794
-0.5515894985487818 0.06586951252452707 0.8315108131650988
-0.5524870491292249 -0.05663952442044179 0.8315948682008005
-0.5471545542987105 -0.1775176698751981 0.8179910577703516
-0.5358858127082539 -0.2929958336803597 0.7918205839607636
-0.5194505150037088 -0.4000316680478435 0.755080013655004
-0.4989494352867892 -0.4966057842354474 0.7102338742209425
-0.4756322755194393 -0.5817820121408865 0.6597754381859792
-0.4507284311924158 -0.6555733660200055 0.605860910671767
-0.4253234411886815 -0.7186969594910111 0.550067860171628
-0.4002904627919889 -0.7722999959859628 0.4932750364632866
-0.3762676512255336 -0.8177109719339374 0.4356276173752934
-0.3536632672663896 -0.8562345965848696 0.3765429709841986
-0.3326688830196189 -0.8889780612757481 0.3147211795238614
-0.3132637316300632 -0.9166733384667157 0.2481447661940365
-0.2951982101930576 -0.9394432733830861 0.1740814544806161
-0.2779555217702779 -0.9564483719012159 0.08914729275151945
-0.2607224646903731 -0.9653572686098784 -0.01044702578974808
-0.2425015669693651 -0.9616346200675779 -0.1282647555055036
-0.2228352455457934 -0.9377444839204986 -0.2664202248689518
-0.2049130908466557 -0.8821997992036453 -0.4239506333109048
0 0 0
-0.0816108525822116 0.8284385789334764 -0.5541021473297916
-0.1680987644215037 0.9064225493637093 -0.3874802800207481
-0.2002414890043389 0.9515278622618059 -0.2334482242828214
-0.2179040341792914 0.970930112070995 -0.09905831293836138
-0.2312763134841486 0.9727690025597159 0.015222827600562
-0.2434709712956954 0.9634206683161831 0.1119933122893015
-0.255646025885534 0.9468919822572914 0.1950402096640321
-0.2683249709738749 0.9252390581516807 0.2682058821548459
-0.2817896311913181 0.8991475425438347 0.3348556412701501
-0.2962091185617793 0.868391588315271 0.397688580957681