# OOMMF: rectangular mesh v1.0
# Segment count: 1
# Begin: Segment
# Begin: Header
# Title: 
# Desc: time = 2.02e-09
# Desc: stepsize = 8.915016805030756e-14
# Desc: step = 12926
# meshunit: m
# valueunit: (none)
# valuemultiplier: 384000.0000000001
# xmin: 0
# ymin: 0
# zmin: 0
# xmax: 9.357999999999999e-08
# ymax: 9.357999999999999e-08
# zmax: 2.3395e-08
# ValueRangeMaxMag: 1
# ValueRangeMinMag: 0
# meshtype: rectangular
# xbase: 1.16975e-09
# ybase: 1.16975e-09
# zbase: 1.16975e-09
# xstepsize: 2.3395e-09
# ystepsize: 2.3395e-09
# zstepsize: 2.3395e-09
# xnodes: 40
# ynodes: 40
# znodes: 10
# End: Header
# Begin: Data Text
0 0 0
0 0 0
0 0 0
0 0 0
0 0 0
0 0 0
0 0 0
0 0 0
0 0 0
0 0 0
0 0 0
0 0 0
0 0 0
0 0 0
0 0 0
0 0 0
-0.8351346040174723 0.02983733321797656 -0.5492357660595478
-0.8449968444339453 0.04865622371530502 -0.5325531943293929
-0.8555763880082186 0.02961972241011258 -0.5168285173315782
-0.8611650358757876 -0.005147515768890473 -0.5082994039603643
-0.8599607142331056 -0.04443723359331903 -0.5084219726233898
-0.8520349962199669 -0.0795859602547507 -0.517399690903241
-0.8393887167108162 -0.09928017271371541 -0.5343875275158504
-0.8281651563887389 -0.08081988047137062 -0.5546265596455047
0 0 0
0 0 0
0 0 0
0 0 0
0 0 0
0 0 0
0 0 0
0 0 0
0 0 0
0 0 0
0 0 0
0 0 0
0 0 0
0 0 0
0 0 0
0 0 0
0 0 0
0 0 0
0 0 0
0 0 0
0 0 0
0 0 0
0 0 0
0 0 0
0 0 0
0 0 0
0 0 0
0 0 0
-0.7792731436539388 0.2402785432806784 -0.5787914902783404
-0.8073430675886014 0.270201272152822 -0.5245840673749279
-0.8445782599202767 0.253130912332275 -0.4718180836846623
-0.8814982501435813 0.2050643693980194 -0.425334502947029
-0.9138823259979408 0.1232876445496247 -0.3868064773630321
-0.927267451004669 0.08274218595052055 -0.3651421709025577
-0.9356716999577552 0.04387486158526669 -0.3501334979961752
-0.9396029934024727 0.001054840835837052 -0.3422646667418697
-0.9385356696244712 -0.04361529866553499 -0.3424156867972917
-0.9324854635693635 -0.08673785174827282 -0.3506385679099253
-0.9219760410537716 -0.1261703055551744 -0.366116420990547
-0.9062922711198456 -0.1673435747056665 -0.3881113851887893
-0.8703781887926471 -0.2489487457556204 -0.4248132889408404
-0.8299998438960569 -0.2983449046124956 -0.4712648692871997
-0.7897219921368618 -0.3171801716116498 -0.5251056216341529
-0.7595929850988905 -0.2888594388310684 -0.5827338342560489
0 0 0
0 0 0
0 0 0
0 0 0
0 0 0
0 0 0
0 0 0
0 0 0
0 0 0
0 0 0
0 0 0
0 0 0
0 0 0
0 0 0
0 0 0
0 0 0
0 0 0
0 0 0
0 0 0
0 0 0
0 0 0
0 0 0
-0.752085602639422 0.3339240183507718 -0.5682094651367313
-0.7900209608115529 0.3626174632099248 -0.4943434604134953
-0.8456084307919309 0.3256303579083859 -0.4229790204987288
-0.8798787142044442 0.3046862301318948 -0.3646638855959652
-0.9102435062962007 0.2716710587673906 -0.3124925520293291
-0.9372790928716698 0.2230247254628079 -0.267895266658256
-0.9587451335944845 0.1620778274191245 -0.2335348938980847
-0.9712927641937507 0.1087749913206656 -0.2115617344607754
-0.9785429870941817 0.05825815106214108 -0.1976350430556694
-0.9816183694859102 0.007491150787510282 -0.1907072608678057
-0.9806492614422089 -0.04373494275925984 -0.1908252625170312
-0.975619279254023 -0.09470573809649092 -0.197984456762289
-0.9663360859105601 -0.1456247849248798 -0.212103727177625
-0.9515232486226873 -0.1994829402088568 -0.2341154926444564
-0.9273280978638292 -0.2610486175973065 -0.2681719936212338
-0.8974628755906047 -0.3107979575569457 -0.312993636540862
-0.8643302923226749 -0.3452348904499326 -0.365713024363943
-0.8273437897772598 -0.3677762560509464 -0.4245502078696336
-0.7686042471961164 -0.4057346448231498 -0.4945977246028564
-0.7281735969753964 -0.3790631725843324 -0.5710291795155593
0 0 0
0 0 0
0 0 0
0 0 0
0 0 0
0 0 0
0 0 0
0 0 0
0 0 0
0 0 0
0 0 0
0 0 0
0 0 0
0 0 0
0 0 0
0 0 0
0 0 0
0 0 0
0 0 0
-0.755896419271631 0.414451859531638 -0.5068039655163458
-0.8073634601025479 0.4144237834210465 -0.4200204412004571
-0.847414403905428 0.4048367841016645 -0.3435054676301813
-0.885754038315175 0.3738061560094934 -0.2751522148516436
-0.9155539635833455 0.337843341239481 -0.2182265257638702
-0.9404266035881225 0.2945464654264799 -0.1698239764240459
-0.9613700407830214 0.2427377926503967 -0.1297921750494392
-0.9777798873064508 0.1846415517811853 -0.09926726215031494
-0.9888244748107295 0.1266765904537787 -0.07860788412296596
-0.9954084598196682 0.06954390750950332 -0.06576962100958934
-0.9981441775890524 0.0126021092857127 -0.05957673695851805
-0.9972301573241092 -0.04440658633382839 -0.05966630886444901
-0.9926457476456225 -0.1014629965823252 -0.06602787294466851
-0.9841414024032376 -0.1588224614636884 -0.07900079626436314
-0.9710367377966518 -0.2171168620999903 -0.09973927030558039
-0.9523828793490678 -0.2756546504852506 -0.1303125657357436
-0.9291074846443789 -0.3281299426813016 -0.1705579745827214
-0.9018302888088611 -0.3723457000558483 -0.2192277579068082
-0.869458513746547 -0.4095358767450242 -0.2762648340493761
-0.8282049209826866 -0.4421114862686009 -0.344403894532901
-0.785164462750843 -0.4537269009363193 -0.4214838855755967
-0.7309302514430188 -0.4548085169190278 -0.5088125199553948
0 0 0
0 0 0
0 0 0
0 0 0
0 0 0
0 0 0
0 0 0
0 0 0
0 0 0
0 0 0
0 0 0
0 0 0
0 0 0
0 0 0
0 0 0
0 0 0
-0.6505589337718085 0.5035234506392551 -0.5685395398264088
-0.7022192296752152 0.5394298348290755 -0.4646542873692476
-0.7827176161333723 0.5049204503652792 -0.3638797496390993
-0.8325703855250077 0.4786229333059382 -0.2788308463214904
-0.8694637999656504 0.4490233503946305 -0.2059386591916918
-0.9004626855161553 0.4106677656528316 -0.1432443305919785
-0.9260224893399062 0.3663645697817182 -0.0908809729557257
-0.9474272512443367 0.3164492032093303 -0.04734453915479346
-0.9652627067614765 0.2610047915950947 -0.01201689227330501
-0.979404587361747 0.2013516479841952 0.01497224461509659
-0.9895629286195803 0.1400769465009895 0.03381803307109427
-0.9958790244531197 0.07838456716813005 0.04561609676601753
-0.9985475867639851 0.01655576956473659 0.05127010300301826
-0.9976587859377239 -0.04533924742929372 0.05119862775320582
-0.9931974096792391 -0.107224463018308 0.04540726744569153
-0.9850432649036548 -0.1690219367082973 0.03348658207885503
-0.9729777682852114 -0.2304409894587831 0.01453316207800258
-0.9568569391211885 -0.29028749994966 -0.01256842983850959
-0.9369943770899728 -0.3460245025315485 -0.04804769452915934
-0.913489176555376 -0.396391906153477 -0.09171140088447931
-0.8856651224472742 -0.4414034203740743 -0.1440843897253362
-0.8521061157233798 -0.4808420664040561 -0.2066544814977181
-0.812271212035049 -0.5119772083488153 -0.2794544976028574
-0.7588940868331917 -0.5399714154636507 -0.3640201030874488
-0.6740106425603285 -0.5758152999568554 -0.4627595423662369
-0.6186177108202514 -0.5424579631971722 -0.5683761835470297
0 0 0
0 0 0
0 0 0
0 0 0
0 0 0
0 0 0
0 0 0
0 0 0
0 0 0
0 0 0
0 0 0
0 0 0
0 0 0
-0.6291924007998895 0.5492887189098768 -0.5499080159935994
-0.6926109135525234 0.5733947717206657 -0.4376169080272653
-0.7441920857687351 0.5792299475460522 -0.3326722220820015
-0.7962251265824379 0.5568990538628208 -0.2364085269305548
-0.8370300245953322 0.5246758999090247 -0.1552286635276874
-0.8695228238306936 0.4861218153804766 -0.08726763116233707
-0.8967797339040641 0.4414418516180478 -0.03025228088895804
-0.9199750187112173 0.3916036786013444 0.01710332871664802
-0.9397973308612484 0.33709552105528 0.05610335632153768
-0.9565035210074904 0.2782808948047225 0.08752575556346827
-0.9699860384769773 0.2159986870422813 0.1116765523991025
-0.980005133710973 0.1515744871365416 0.1288996227668325
-0.9864292259013075 0.08602295950510558 0.139847891388213
-0.9892121370609905 0.01992966042448757 0.1451280693959384
-0.9883356331980104 -0.04634002207768969 0.1450699090263944
-0.9837892363086349 -0.1124700480249424 0.1396754338476866
-0.9755738736581183 -0.1780814563789395 0.1286180855465079
-0.9637290206140434 -0.242570689165095 0.1112916689796097
-0.9483928645782431 -0.3049177606687613 0.08704098830908091
-0.9298136221186889 -0.3638178099877534 0.0555268336774062
-0.9080773402029072 -0.418478153789155 0.01647965446340018
-0.8828633858242325 -0.4686164169121985 -0.03083659792104819
-0.8533790358209192 -0.5138574015174469 -0.08771996424471951
-0.8183113293319493 -0.5533459423318137 -0.1554825919255739
-0.7743797105626653 -0.5869335553269618 -0.2363156057058745
-0.7185167964336727 -0.6111232391334933 -0.3320572237336186
-0.6628377904271907 -0.6078328381338289 -0.4372474179086404
-0.5957454792145873 -0.5857002234383863 -0.5495839992754568
0 0 0
0 0 0
0 0 0
0 0 0
0 0 0
0 0 0
0 0 0
0 0 0
0 0 0
0 0 0
0 0 0
-0.5865379621249663 0.5941906416254908 -0.5503732373498718
-0.6553708831976053 0.6223555060563557 -0.4279750337789898
-0.7088486688454599 0.6310948373273972 -0.3150442365362754
-0.7529293997780793 0.6224124966809491 -0.2137755901060929
-0.7925431975632812 0.5969295364337741 -0.1247012771752113
-0.8264620961029557 0.560807440438392 -0.04955217910493188
-0.8555143697294484 0.517615332045515 0.01302041542484024
-0.8808884353602247 0.4688299640783765 0.06506941855344164
-0.9032379061696908 0.4152706502136081 0.1082200163064079
-0.9228295872983372 0.3573901007280643 0.1437284547623192
-0.9396406931336411 0.295563638296503 0.172387654790776
-0.9534377857504758 0.2303897224181595 0.1946200516578709
-0.9638999998449388 0.1627295452902675 0.210750766044988
-0.9707476167687595 0.09344050605410861 0.2211739956824151
-0.9737905298438791 0.02323782210839141 0.2262565084368512
-0.9729302726810145 -0.04727685797535128 0.2262113684164098
-0.9681567495547927 -0.1175332743909385 0.2210394482947374
-0.9595527487540038 -0.1869108498682716 0.2105299421938737
-0.9473041524967881 -0.254665815017556 0.1943197502154247
-0.9316982668913497 -0.3199173916670636 0.1720209347160897
-0.9130658122455348 -0.3817984455705097 0.1433205130759146
-0.8916358556542838 -0.439728193959967 0.1078175141076717
-0.8674014965872552 -0.4933797352589646 0.06473855538999361
-0.8400330042949621 -0.54238356622248 0.01283038530068941
-0.8087700929731929 -0.586034557214916 -0.04954224926312199
-0.7722617238919661 -0.6229993209068116 -0.1244334197917081
-0.729502634907736 -0.649889747566658 -0.213235132354908
-0.6816614940950885 -0.6606883072262028 -0.314370113341943
-0.6238564482800593 -0.6545358684881514 -0.4270666561578542
-0.5509005932667189 -0.6285492607635118 -0.5490303845253187
0 0 0
0 0 0
0 0 0
0 0 0
0 0 0
0 0 0
0 0 0
0 0 0
0 0 0
-0.5434724704741344 0.6171181865039046 -0.5690367454944124
-0.6088423342678352 0.6613891136076233 -0.4380359030999803
-0.6617138531235104 0.6802524139443984 -0.3152640637739345
-0.7051039996624614 0.6785764571429922 -0.2058211395150262
-0.7420631420160488 0.6611448356452435 -0.1105884241722093
-0.7751151423757577 0.6311615654482824 -0.02883737783990745
-0.8049227162939396 0.5920251163534117 0.04007096705490029
-0.8319755256225891 0.546145543735489 0.09768198310273471
-0.8566728404974064 0.4948253909721299 0.1458062989153187
-0.8791659375588239 0.4387329971821269 0.1859586282480634
-0.8993707693143373 0.3782379640041403 0.2192447533897652
-0.9170186271044806 0.313667379018266 0.2463526189899845
-0.9317148988666194 0.2455023365535522 0.2676489304606146
-0.9430187582341304 0.1744330166217926 0.2833526854130372
-0.9505309910724488 0.1012651575246951 0.2936600123992477
-0.9539555773248896 0.02682440433895576 0.2987460590913229
-0.9531303786219861 -0.0480750495262321 0.2987160373347221
-0.9480405983475215 -0.1226178197726992 0.2935709354807836
-0.9388240222148586 -0.1959652465097714 0.2832085406068791
-0.9257657445357033 -0.2672514465364762 0.2674592502950972
-0.9092695319098919 -0.3356280933841226 0.2461355343539488
-0.8897909198953402 -0.4003723694435019 0.2190298716111563
-0.8677392455801765 -0.460989361302227 0.1857886176441129
-0.843387162406305 -0.5171652283587268 0.1457333896706799
-0.8167992579895754 -0.5685789951880257 0.09775939023262027
-0.7877642753262779 -0.6146541375068726 0.04034523225049247
-0.75576330246269 -0.6542317795506456 -0.02833035962855259
-0.720123761236498 -0.6850969825511334 -0.1098357546609052
-0.6799632738767708 -0.7040537031673976 -0.204837323832979
-0.6325496740248195 -0.7080010916704622 -0.3140308330156897
-0.5749370745219617 -0.6919716486469929 -0.4366034789244012
-0.5051709091888021 -0.6501287933058162 -0.5675692949976079
0 0 0
0 0 0
0 0 0
0 0 0
0 0 0
0 0 0
0 0 0
0 0 0
-0.5769709737379862 0.6726018314190628 -0.4633694765902929
-0.6122999100397474 0.7171635781191231 -0.3328140958323329
-0.6511000424149325 0.7281720218345705 -0.2140893303848325
-0.6863457418660254 0.7187899523635124 -0.110772410841482
-0.7180850737659276 0.6955946001915584 -0.0224048882819794
-0.7474520523837574 0.6622227118236805 0.05269259276405868
-0.775100107702118 0.6210600727067909 0.1162076121844007
-0.8013066856604206 0.5736292897161208 0.1698735809232552
-0.8261032806211189 0.5207705714121953 0.2152937103076625
-0.8493166026345274 0.4629026418067306 0.2537369754247364
-0.8706032133634978 0.4002639251452644 0.2860748767516249
-0.889489256578531 0.3331107938394228 0.3128035509054223
-0.9054185578111443 0.2618630472776667 0.3341331765054785
-0.9178166762224803 0.187163360620985 0.3501177306121143
-0.9261657933357603 0.1098469018083728 0.3607638859667673
-0.9300720237283799 0.03087588421172527 0.3660774650971285
-0.9293129246577091 -0.04871614541230606 0.3660658755474232
-0.9238639524868131 -0.1278628509907173 0.3607304930720001
-0.9139051000385697 -0.2054997337176941 0.3500676042787276
-0.8998054271925959 -0.2806110177408012 0.3340773112877034
-0.8820806754497497 -0.3522984944544167 0.3127610154786943
-0.8613241050235531 -0.4198601932626933 0.2860737740842187
-0.8381241452643076 -0.4828318326303561 0.2538135901085382
-0.8129890115132128 -0.5409373554501936 0.2154893144388349
-0.7862830307818631 -0.5939536157530101 0.170229544552092
-0.7581659061877443 -0.6415227071169882 0.1167607594519953
-0.7285329502666565 -0.6829206158829698 0.05347123317996115
-0.696951995563392 -0.7167988079395693 -0.02138655691356992
-0.6625272098094021 -0.7409875909712007 -0.1095220812843901
-0.6238338291355736 -0.7520653009870361 -0.2126714289163594
-0.5807066412844584 -0.7435439855975733 -0.3315450772516434
-0.5409664657647674 -0.7017915346127307 -0.4635125940725714
0 0 0
0 0 0
0 0 0
0 0 0
0 0 0
0 0 0
0 0 0
-0.4561107214632652 0.7296799242415943 -0.5094410838605776
-0.5412803037612171 0.7576450806178557 -0.3646773431072002
-0.5882779727486674 0.7731356002839253 -0.2370450808439855
-0.6243924305822505 0.7710057448134888 -0.1252367122539796
-0.6556788958135101 0.7544746441622471 -0.02920953441987721
-0.6844215548964961 0.727193257844517 0.05250810355116467
-0.7118387527636085 0.6916579240615586 0.1220446891380549
-0.7385079991817376 0.6493747811632304 0.1814340892274453
-0.7645727205124223 0.6011707102677722 0.2324270469725392
-0.7898836182355999 0.5474255929133607 0.2764219417240459
-0.8140811080976826 0.4882754806038655 0.3144185180289364
-0.8366460307074458 0.4237936953049695 0.3470191970500099
-0.856941448459711 0.3541460875463474 0.3744755033208269
-0.8742605314942887 0.2797096927265962 0.3967757690007245
-0.8878897435277915 0.2011341524095464 0.413759418107486
-0.8971854059631826 0.1193376814373237 0.4252256637549554
-0.9016506949009199 0.03545584320738829 0.4310091734141406
-0.9009982829863133 -0.0492317500822706 0.4310201025933144
-0.8951888101365052 -0.1333829067213805 0.4252599139361042
-0.8844398423240174 -0.2156790837973201 0.4138220609419166
-0.8692027718377963 -0.294915554586123 0.3968770049935506
-0.8501089310477771 -0.3700888286794518 0.3746319049940578
-0.8278931829636602 -0.4404630417201166 0.3472537782097719
-0.8033105111420282 -0.5055874914319921 0.3147594497330269
-0.7770600455284101 -0.5652468336144389 0.2769001674471063
-0.7497191025366455 -0.6193529414539233 0.2330733815861844
-0.7216780665021649 -0.6677994357219359 0.1822763889788246
-0.6930618792136032 -0.7102889345143516 0.1231050814847839
-0.6636186322205888 -0.7461339819674396 0.05379955318668415
-0.6325555952051934 -0.7740198610938003 -0.0276888715359999
-0.5983359846287624 -0.7916674846478123 -0.1235177851555572
-0.558339670131804 -0.7955726457809708 -0.2352041199515296
-0.506426095412166 -0.7822977190830437 -0.3626884180712894
-0.4160859243934681 -0.7557184405210481 -0.5057293171035941
0 0 0
0 0 0
0 0 0
0 0 0
0 0 0
-0.3804974299039527 0.7270179638026433 -0.5715475362073955
-0.4551597532738652 0.7840276189652419 -0.4220548444211573
-0.5134368162106124 0.8111360607071404 -0.2800730740003598
-0.5548558449786753 0.8171596212887304 -0.1561574353921648
-0.5876094840627775 0.8075809213619145 -0.05028070894206658
-0.6163017596285605 0.786517180991914 0.03953308846108557
-0.6432449717824902 0.756843595944818 0.1158605953456996
-0.6695930301099333 0.7202682896829464 0.1812698676156648
-0.6958367109420829 0.6776369710094406 0.2379483289003189
-0.7220381563500414 0.6292459124853287 0.2875943017431647
-0.747961110823677 0.5750800022736968 0.3314169091647186
-0.7731474011080663 0.5149972908330566 0.3701633242157498
-0.7969658139894944 0.4488851840725456 0.4041628172558909
-0.8186540383975621 0.3767975333308731 0.4333926444820352
-0.8373696234130378 0.2990660772169936 0.457571409993179
-0.8522592868501203 0.2163690346607491 0.4762757067263658
-0.8625456958799547 0.1297422887916233 0.489062226120639
-0.8676198535235055 0.04053279624778034 0.4955732864069514
-0.8671215295741403 -0.04969466937631535 0.4956114332666076
-0.8609912016838556 -0.1392817539658591 0.4891776197202644
-0.8494824405139317 -0.2266149780100693 0.4764716518324985
-0.8331314366093215 -0.3102599144099961 0.4578545564298656
-0.812689470270945 -0.3890709039974413 0.4337737389162048
-0.7890326470863532 -0.4622558485058594 0.4046566598414382
-0.7630673132869944 -0.5293813593928548 0.3707878796837084
-0.7356453232095885 -0.5903172853339185 0.3321919039890235
-0.7074921792278203 -0.6451354027576521 0.2885396479518735
-0.6791399147071739 -0.6939801830809242 0.239082583519793
-0.6508494202868885 -0.7369186467601962 0.1826087078135704
-0.6225025004226514 -0.7737598488372247 0.1174152174760213
-0.5934406229126682 -0.8038170513642647 0.04130829230411823
-0.5622104900735847 -0.8255832024165628 -0.04828810142086407
-0.5260901638016175 -0.8363788562040501 -0.1539465765971795
-0.4800817195586066 -0.8321566670151231 -0.277555082979815
-0.4159687487598911 -0.8072005259364419 -0.4188046214920049
-0.3355743193665695 -0.7521736117212823 -0.5671196822645329
0 0 0
0 0 0
0 0 0
0 0 0
-0.4072697932351898 0.7675387347912405 -0.4949905111345336
-0.4436664418314098 0.8271695080872216 -0.3448922922934047
-0.4824432693814787 0.8510677525044531 -0.207200802304258
-0.5155270358445382 0.8523095028067132 -0.08831979811297502
-0.5441380476704811 0.8389074319844103 0.01216986600906246
-0.5704288105616493 0.8155961986235981 0.09702480544663501
-0.5959035280481346 0.7849851372639397 0.1694028321324614
-0.6214020556498314 0.7483140817575747 0.2321325489402141
-0.6472771062216324 0.7059740449943391 0.2874595546432223
-0.6735263765112157 0.6578660834507295 0.3370080657623334
-0.6998728280179339 0.6036473323686681 0.381821846842699
-0.725812763752574 0.5429131319675258 0.4224229670733606
-0.7506495007826309 0.4753505292517278 0.4588760195465527
-0.7735291064737686 0.4008781012062199 0.4908660401893659
-0.7934923895215037 0.3197677955559119 0.5178014915938021
-0.8095519938495265 0.2327301977518886 0.5389454743372676
-0.820793600256808 0.1409411842601888 0.5535643127558008
-0.8264884264248605 0.04599586394468801 0.5610715297408515
-0.8261952820111225 -0.05020923287567865 0.5611420398763552
-0.8198287222324576 -0.145648840146731 0.5537754793836641
-0.8076761561920567 -0.2383661378339134 0.5392965891352993
-0.7903593148029692 -0.3266575408397601 0.5182923928794448
-0.7687498626340831 -0.4092106492415964 0.4914980094032415
-0.743859751536194 -0.4851726072005202 0.4596522721218296
-0.7167296350259751 -0.5541430507747077 0.4233486855461246
-0.6883322123325096 -0.6161033813994594 0.3829038898909031
-0.6594955069720924 -0.6713043658396251 0.3382545264860191
-0.630839753509929 -0.7201319188593083 0.2888792564922963
-0.6027143503736057 -0.7629571118287914 0.2337345874353878
-0.5751179377445242 -0.7999569980755786 0.1711962584707775
-0.5475839721004759 -0.8308713239774728 0.09901836441078081
-0.5190175824774783 -0.8546427384925134 0.01437145160555348
-0.4875107897862425 -0.8688807527473912 -0.08590382614948117
-0.4504293128978457 -0.8690586762073641 -0.2045738287051352
-0.4062911437784054 -0.8472597917239173 -0.3421671401744749
-0.3641321144683818 -0.7901240004394483 -0.4930637556567584
0 0 0
0 0 0
0 0 0
-0.290499284897249 0.758691842075562 -0.5830924920132116
-0.369410836043713 0.8264280596755945 -0.4249144577374557
-0.4112048772971018 0.8685387651146367 -0.276678445817915
-0.443136615249599 0.8847238794254282 -0.1445461773951433
-0.4704380995256968 0.8818759993554869 -0.03134830578214678
-0.4953091055416571 0.8663436838642762 0.06416783770704906
-0.5192160842898151 0.8422374877418829 0.1450884973283293
-0.5431178888672895 0.8117298406902678 0.2147501444127345
-0.5675593930994329 0.7756783922617048 0.2760423284260934
-0.5927581001244957 0.7341340505979941 0.3311873042394283
-0.6186623056227352 0.6866917004697137 0.3817217050516958
-0.6449819481529684 0.6327303510855896 0.4285447343882639
-0.6712036123922225 0.5715955156485932 0.4719791067431368
-0.6966029180718663 0.5027608521856225 0.5118358135607027
-0.7202683020028026 0.4259851309560441 0.5474945126066206
-0.7411497785100336 0.3414590760110901 0.57801618076329
-0.7581417806394903 0.2499188625118478 0.6022969389010426
-0.7701993418171733 0.1526939252629536 0.6192556330403334
-0.7764730517318005 0.0516615968765807 0.6280292026191662
-0.7764358838445145 -0.05090029772609689 0.6281373082137232
-0.7699703865238633 -0.1525436649646979 0.619577302808479
-0.7573920633778293 -0.2509174183307151 0.6028247767888464
-0.7394023310607798 -0.3440128178459877 0.5787394698649362
-0.7169849072579144 -0.4303358765064868 0.5484010176465327
-0.6912735056046638 -0.5089800183327644 0.5129135223280986
-0.663420858142966 -0.579601438784985 0.4732176424640412
-0.6344902518244203 -0.6423214486132358 0.4299363638856073
-0.60537681000685 -0.6975881342509611 0.3832619376590801
-0.5767532941754158 -0.7460226155511402 0.3328751939451796
-0.5490276224504501 -0.7882582100765958 0.2778806650942927
-0.5222964830692119 -0.8247591636283353 0.2167457168772205
-0.496279865656951 -0.8555834650626918 0.1472522640058069
-0.4702265761147059 -0.8800356938077453 0.06651424463797653
-0.4428023387302965 -0.8961564617047559 -0.02880425246020314
-0.4120206433105664 -0.9000738576344662 -0.1417957696440802
-0.3751836220156585 -0.8856150541949961 -0.273721072543575
-0.3270650178814474 -0.8457385672844931 -0.4216097127507628
-0.2418181419989418 -0.7796849267380832 -0.5775944954876293
0 0 0
0 0 0
-0.3188865426716903 0.7889066203155924 -0.5252977415953024
-0.346954365997963 0.8635272058619916 -0.3659828310879249
-0.3741159629727404 0.9010189399774883 -0.219549803121802
-0.3982450874095622 0.9126458875069167 -0.09207787123333101
-0.4204414173908191 0.9071774241637448 0.01606659982794005
-0.4418239797713203 0.8906559037266215 0.1073481814282217
-0.463235157054365 0.866658297773602 0.1852473594116249
-0.4852398268257058 0.8369243548701714 0.253179649038594
-0.5081641712834178 0.8019779130626812 0.314007327913638
-0.5321269816253267 0.7615930691037409 0.369887648508926
-0.5570510752920536 0.715111840591825 0.4222666870134782
-0.5826580341705887 0.6616668473479674 0.471917999590041
-0.6084553525166526 0.600361368995747 0.5189877750115004
-0.63372746034463 0.5304431037945891 0.5630449534823195
-0.6575444080374151 0.4514867693821826 0.6031542493687372
-0.6788027860131892 0.3635773901662402 0.6379955008153565
-0.6963099406639071 0.2674634171538117 0.666044883635504
-0.7089120841348209 0.1646342357244916 0.6858128209614023
-0.7156506609074409 0.05727823352963798 0.69610583642609
-0.7159146708527612 -0.05189844552461539 0.6962562282736944
-0.7095486967513923 -0.1599707468258942 0.68625797416013
-0.6968842424655288 -0.2641459802617774 0.6667677659536264
-0.6786850307879019 -0.3620814023456471 0.6389708029791609
-0.6560241840729856 -0.4520961053052359 0.604352034396518
-0.6301292198919545 -0.5332456870683069 0.5644344102386085
-0.6022325699221903 -0.6052714462026652 0.5205404961543799
-0.5734535524035622 -0.6684640579206673 0.4736104163803506
-0.5447206670652056 -0.7234875342464356 0.4240815754805312
-0.516728600072248 -0.7711972980442748 0.3718148482196271
-0.4899161173164023 -0.812464399196548 0.316043981166882
-0.4644484737407147 -0.8479941818352789 0.2553301447409521
-0.4401891228252708 -0.878105210517548 0.1875227330438911
-0.4166503990084481 -0.9024158244763836 0.1097639500961454
-0.3929276875084938 -0.9193804937451819 0.01863706280753745
-0.3676595076764592 -0.925657948993047 -0.08935238038848413
-0.3391395747322762 -0.9154347564771772 -0.2167107645779998
-0.306013584632166 -0.8800276237441184 -0.3631901257851759
-0.2715803076405512 -0.8077753070672751 -0.5232047302865603
0 0 0
0 0 0
-0.3001051144374015 0.8293094824540002 -0.4713626020383798
-0.3125863043589595 0.8967797464073722 -0.3131707022707204
-0.32998657502095 0.928408328575467 -0.1707830077544311
-0.3479834268945627 0.9362550468516938 -0.04831171546787117
-0.3659087873473871 0.9290109536182314 0.05522143967073174
-0.3840471938890117 0.9121781515483995 0.1429642357504845
-0.4028002870506643 0.8887984076992348 0.2186076833581261
-0.4224839661701414 0.8602090349344977 0.2855656046273888
-0.4432941023975374 0.8266407090140122 0.3466345005627285
-0.4652996635623904 0.7876320265777565 0.4038960433053804
-0.4884277493339977 0.7423062610456364 0.4587153240223965
-0.5124371817738074 0.6895709710078077 0.511761673710592
-0.5368868280454951 0.6282929444621398 0.5630279831503414
-0.5611092115192743 0.5574844911052841 0.611855779514503
-0.5842036529450658 0.4765160408505014 0.6569920507112728
-0.605065586894726 0.3853436715490468 0.6967107652052182
-0.6224661484335028 0.2847118205153922 0.729023369524716
-0.6351856334387935 0.1762693401699841 0.7519762833952918
-0.6421856496939579 0.06253546374186117 0.7639940491271767
-0.6427836719772332 -0.05331852773196696 0.7641899538988716
-0.6367813137055603 -0.1678474548047937 0.7525535133337515
-0.6245052768656889 -0.2777818069196401 0.7299523456441309
-0.6067480524824349 -0.3804283510855703 0.6979477562820056
-0.5846298036886461 -0.4739247101240304 0.6584856579856759
-0.5594249782708237 -0.5573112208501189 0.6135534995428171
-0.5323986936711576 -0.6304444802236878 0.5648817472115101
-0.5046830106104176 -0.6938117525800613 0.5137317498296051
-0.477202645700496 -0.7483090221767046 0.4607724408701003
-0.4506429795802891 -0.7950264198161572 0.4060220397334383
-0.4254443675669393 -0.8350570847628119 0.3488219535708731
-0.4018047711425554 -0.8693183954245632 0.2878167008071989
-0.3796749356504444 -0.8983518235056632 0.220931990537541
-0.3587365793196708 -0.9220490387187863 0.1453741271883789
-0.3383712555270204 -0.939240648882648 0.05772258587043119
-0.3176791272055829 -0.9470944049123657 -0.04574013906395735
-0.2957586562162483 -0.9403320229014631 -0.1682334805536662
-0.2728926150242474 -0.9104119695050145 -0.3109335402416856
-0.2543796678583489 -0.8450331001379719 -0.4703297186564803
0 0 0
0 0 0
-0.25075447205116 0.8698382904921123 -0.4248570855477204
-0.2628940973491015 0.9267790592543417 -0.2682671595753718
-0.2775834926457413 0.9518050311368464 -0.1304399759014755
-0.2923361057540766 0.9562309757718506 -0.0127248672667018
-0.3071186778916439 0.9476998153689052 0.08685146884095243
-0.3222997084837537 0.9309196076623155 0.1717893535150742
-0.3382172664798215 0.9083873563468357 0.2458485132843466
-0.3551159885458703 0.8810780365443185 0.3124005893052973
-0.3731515774145786 0.8489705140592708 0.3741750479801513
-0.3923904483840826 0.8114028057511221 0.433191900704693
-0.412791948996618 0.7673072098823902 0.4907570198235321
-0.4341757969126139 0.7153858864300346 0.5474617894173163
-0.4561818266174827 0.6542789792987564 0.6031725775528208
-0.4782323567841939 0.5827625049229984 0.6570248669422695
-0.4995118488071846 0.4999919701186322 0.707457378729006
-0.5189821026226126 0.4057782625025148 0.7523307642505731
-0.5354504021653923 0.3008464751136418 0.7891668171132235
-0.547698245274387 0.1869978115166301 0.815511159096764
-0.5546584303934824 0.06708791298907855 0.8293691804764676
-0.5556031025385616 -0.05522978622893721 0.8296112723213384
-0.5502880948574761 -0.1759696875194895 0.8162215886218777
-0.5390046587517081 -0.2913727709062043 0.7903011364147178
-0.5225215813444554 -0.3983976608319659 0.7538239190108701
-0.5019407936534486 -0.4950178087944656 0.70923395903106
-0.4785152480924383 -0.5802845302737496 0.6590091207775547
-0.4534792915031751 -0.6541962288631542 0.6052964780328771
-0.4279244677077636 -0.7174560939064794 0.5496702677546634
-0.4027302871332271 -0.7711997987270026 0.4930103307934011
-0.3785410487005622 -0.8167473944010056 0.4354656911719293
-0.3557706113894591 -0.8553981325869238 0.3764589045810625
-0.3346155002354835 -0.8882562634162067 0.314695531433217
-0.3150593175734226 -0.9160527419597614 0.2481632534404948
-0.2968563976336537 -0.9389108232697618 0.1741342732803255
-0.2794935938981321 -0.9559924938685455 0.08922826142486837
-0.2621611465433664 -0.9649686969861339 -0.01034152212924932
-0.2438647891477421 -0.9613068595850127 -0.1281369826737277
-0.2241499021137569 -0.9374732259010866 -0.2662719889530306
-0.2062096641799924 -0.881979333497897 -0.4237806386343992
0 0 0
-0.08266088679253158 0.8278797651803179 -0.5547812832095663
-0.1691864667865242 0.9059352300503765 -0.3881459756455853
-0.2013747149714249 0.9511199692982519 -0.2341346368486921
-0.219102590748696 0.970587792706308 -0.09976668470338933
-0.2325601678524744 0.9724740723074718 0.01448954858337846
-0.2448589757447647 0.963157782865189 0.111225749282427
-0.2571556646794945 0.9466509744461451 0.1942238314507536
-0.2699722196824553 0.9250154223071995 0.2673227807231562
-0.2835888447353012 0.8989424511968346 0.3338859634335104