# OOMMF: rectangular mesh v1.0
# Segment count: 1
# Begin: Segment
# Begin: Header
# Title: 
# Desc: time = 1.94e-09
# Desc: stepsize = 8.867496696668514e-14
# Desc: step = 12414
# meshunit: m
# valueunit: (none)
# valuemultiplier: 384000.0000000001
# xmin: 0
# ymin: 0
# zmin: 0
# xmax: 9.357999999999999e-08
# ymax: 9.357999999999999e-08
# zmax: 2.3395e-08
# ValueRangeMaxMag: 1
# ValueRangeMinMag: 0
# meshtype: rectangular
# xbase: 1.16975e-09
# ybase: 1.16975e-09
# zbase: 1.16975e-09
# xstepsize: 2.3395e-09
# ystepsize: 2.3395e-09
# zstepsize: 2.3395e-09
# xnodes: 40
# ynodes: 40
# znodes: 10
# End: Header
# Begin: Data Text
0 0 0
0 0 0
0 0 0
0 0 0
0 0 0
0 0 0
0 0 0
0 0 0
0 0 0
0 0 0
0 0 0
0 0 0
0 0 0
0 0 0
0 0 0
0 0 0
-0.835248539523217 0.03078179024236589 -0.549010344723856
-0.845149547012824 0.04957158264474576 -0.5322263629116025
-0.8557814404518015 0.03050350553707596 -0.5164374718474529
-0.8614282054492346 -0.004298999667776643 -0.5078611675038434
-0.8602839808663308 -0.04362962468920461 -0.5079448081379085
-0.8524172277160573 -0.07882710557954731 -0.5168860196589009
-0.8398241370513855 -0.09858168860440672 -0.5338324357865478
-0.8286375676907922 -0.08020390021807143 -0.5540100322208044
0 0 0
0 0 0
0 0 0
0 0 0
0 0 0
0 0 0
0 0 0
0 0 0
0 0 0
0 0 0
0 0 0
0 0 0
0 0 0
0 0 0
0 0 0
0 0 0
0 0 0
0 0 0
0 0 0
0 0 0
0 0 0
0 0 0
0 0 0
0 0 0
0 0 0
0 0 0
0 0 0
0 0 0
-0.7790743669444437 0.2412036872772264 -0.5786742710834687
-0.8071761196278279 0.2711219350365288 -0.5243659106431404
-0.8444580700512376 0.2540486738999811 -0.4715398596248248
-0.8814357369281303 0.205981802447412 -0.4250206332949947
-0.9138949205137984 0.1242090466571435 -0.3864818068002693
-0.9273336458557517 0.08365026281412045 -0.3647669705373653
-0.9357898938477839 0.04475962255243799 -0.3497053770837903
-0.9397750751256203 0.001908663696067991 -0.3417881875892276
-0.9387628824090584 -0.04279982923569989 -0.3418953425076605
-0.9327674369687932 -0.08596878240551188 -0.3500775299592669
-0.9223110795776299 -0.1254563717725894 -0.3655174021438701
-0.9066814118037676 -0.1666917461730247 -0.3874824889557127
-0.8708496876863649 -0.2483469360879806 -0.4241987986690585
-0.8305406091003275 -0.297807276283225 -0.4706518063579732
-0.7903191174500015 -0.3167208838221817 -0.5244841030421667
-0.76022655455717 -0.2884974398405987 -0.5820866026215976
0 0 0
0 0 0
0 0 0
0 0 0
0 0 0
0 0 0
0 0 0
0 0 0
0 0 0
0 0 0
0 0 0
0 0 0
0 0 0
0 0 0
0 0 0
0 0 0
0 0 0
0 0 0
0 0 0
0 0 0
0 0 0
0 0 0
-0.7517314211690873 0.3347842369518747 -0.5681719679073005
-0.7896975880237639 0.3634899478263761 -0.4942193615173606
-0.8453404996647987 0.3265274544377632 -0.4228229666478185
-0.8796513641046132 0.3055969162303456 -0.3644502742753744
-0.9100602163894559 0.2725900066185444 -0.3122260252395335
-0.9371472502971293 0.2239499948771614 -0.2675844372437389
-0.9586726524974259 0.1630072837670128 -0.2331852713883303
-0.9712752870747003 0.1096982938976365 -0.2111648669497496
-0.9785787437346503 0.05916445151500871 -0.1971882602683057
-0.9817073873907647 0.008370557278472027 -0.1902118274799071
-0.9807916834330472 -0.04289168903998383 -0.190283937104176
-0.9758147205515697 -0.09390755728116 -0.1974006125632516
-0.9665842965694341 -0.1448799800685686 -0.2114818881150412
-0.9518267797800414 -0.1987977870296724 -0.2334635328389871
-0.9276964431912303 -0.2604247660948369 -0.2675037392164626
-0.8978929116947598 -0.3102424230311986 -0.312310675578079
-0.8648158364769928 -0.3447568798955805 -0.3650154280893654
-0.8278805005258191 -0.3673846828008203 -0.423842390155184
-0.7692081218463422 -0.4054272453073404 -0.4939105324328724
-0.7288170304979872 -0.3788607475909285 -0.5703422393536516
0 0 0
0 0 0
0 0 0
0 0 0
0 0 0
0 0 0
0 0 0
0 0 0
0 0 0
0 0 0
0 0 0
0 0 0
0 0 0
0 0 0
0 0 0
0 0 0
0 0 0
0 0 0
0 0 0
-0.7554539228028078 0.4152534984902626 -0.5068075596451239
-0.8069600416485253 0.4152577726857798 -0.4199719912168604
-0.8470437287119658 0.4057002561011464 -0.343400966581623
-0.8854233987480942 0.3746999763913915 -0.2750006048023597
-0.9152625945745306 0.3387625330220331 -0.2180236895229358
-0.9401778255491341 0.2954855168444815 -0.1695699433297389
-0.9611695761290812 0.2436918164620726 -0.1294887814185356
-0.9776332489297876 0.1856044791123889 -0.09891515516039857
-0.9887327344205232 0.1276384736989244 -0.07820485865420081
-0.9953716303353036 0.07049317591780695 -0.06531485032257256
-0.998162105578398 0.01352717198583681 -0.05907136874462984
-0.9973023374375837 -0.04351678175090067 -0.05911292115583336
-0.9927712648389927 -0.1006186952241171 -0.06543006863348333
-0.9843194911269297 -0.1580327260713312 -0.0783632367764691
-0.9712679161358404 -0.2163889612173367 -0.09906791886591564
-0.9526691789453489 -0.2749938440751189 -0.1296141242626878
-0.9294470599674036 -0.3275420414922837 -0.1698363146474156
-0.9022199822638848 -0.3718371546361123 -0.2184862330579998
-0.8698972581309347 -0.4091129138431145 -0.2755093174886791
-0.8286972452156041 -0.4417785962408045 -0.3436459626935436
-0.7857047188054914 -0.4534926734572668 -0.4207285228830626
-0.731522175324831 -0.4546772732547575 -0.5080786200910692
0 0 0
0 0 0
0 0 0
0 0 0
0 0 0
0 0 0
0 0 0
0 0 0
0 0 0
0 0 0
0 0 0
0 0 0
0 0 0
0 0 0
0 0 0
0 0 0
-0.649983967354165 0.504215701304176 -0.5685836514892747
-0.7016716438576251 0.5401522049007177 -0.4646423352935355
-0.7822227444216773 0.5056943004274862 -0.3638692795834433
-0.8321117286765664 0.4794449998242526 -0.2787876667688481
-0.8690364092684991 0.449890102948308 -0.2058509524750212
-0.9000691695641855 0.4115766355376577 -0.1431089203353128
-0.9256657887894048 0.3673109528948643 -0.09069460484700746
-0.9471119934290736 0.3174271035408427 -0.0471052634052401
-0.9649947144857344 0.2620071719207981 -0.01172360339914789
-0.979189363202535 0.2023696338974072 0.01532064839497971
-0.9894038031571921 0.1410989930937428 0.0342226306121485
-0.9957775704705624 0.07939748143402826 0.04607678471504736
-0.9985040972314938 0.01754596072114777 0.05178520130588207
-0.9976724720531454 -0.0443848845577235 0.05176505124273454
-0.9932666196980836 -0.1063179552129558 0.04602080608678737
-0.9851659298555281 -0.1681737284402143 0.03414216915207829
-0.9731519284505623 -0.2296595697310823 0.01522518255670156
-0.9570806929184595 -0.2895794033753605 -0.01184552166394486
-0.9372646709927058 -0.3453951116909242 -0.04729855525222944
-0.9138029676047589 -0.3958459162320979 -0.09094034857590133
-0.8860212318022052 -0.4409449730196219 -0.1432965720609794
-0.8525062787666274 -0.4804747824011519 -0.2058568146553378
-0.8127172639560595 -0.5117050036800064 -0.2786550521282913
-0.7593950544005174 -0.5397959059350415 -0.3632348156328113
-0.674588855906204 -0.5757308158500742 -0.4620215397227342
-0.6192389245881983 -0.5424865203308585 -0.5676720263798177
0 0 0
0 0 0
0 0 0
0 0 0
0 0 0
0 0 0
0 0 0
0 0 0
0 0 0
0 0 0
0 0 0
0 0 0
0 0 0
-0.6285601025101638 0.5499038341832108 -0.5500163367419332
-0.6920109424201598 0.5740596375942343 -0.4376944003022406
-0.7436175291342505 0.5799436809607078 -0.3327135363612616
-0.7956820316377912 0.5576686886589957 -0.2364227954705562
-0.8365145504781634 0.5255036877480024 -0.15520721955362
-0.8690338951617346 0.4870069394335029 -0.08720280960860743
-0.8963202394027506 0.442381829096533 -0.03013877439779377
-0.919549762761544 0.3925939166243813 0.01726992862509807
-0.9394125155306032 0.3381293187081708 0.05632663219483102
-0.9561660646311941 0.2793494381496224 0.08780858872106266
-0.9697024750803258 0.2170906991204009 0.1120211505855262
-0.9797804119594047 0.1526761486327148 0.1293071458943383
-0.9862663036805485 0.08711870460819497 0.1403178874260061
-0.9891119885294265 0.02100334854750767 0.1456582764457786
-0.9882974041328531 -0.04530405379580069 0.1456563891284229
-0.98381051740396 -0.1114861092561397 0.1403129120511724
-0.9756511143723878 -0.1771618421256326 0.1293003662739183
-0.9638579725632024 -0.2417252285683059 0.1120121538046318
-0.9485688483597075 -0.3041537232224902 0.08779323761790832
-0.9300316775773456 -0.3631402210747976 0.05630504897799775
-0.9083331616070662 -0.4178903137444778 0.01727869218003851
-0.8831545399697903 -0.4681204587148666 -0.03002156996777647
-0.8537057549926059 -0.513454882727045 -0.08689400034674756
-0.8186765153140418 -0.5530385300319398 -0.154651697609072
-0.7747907726254177 -0.5867232822681777 -0.2354889566390838
-0.7189835453192318 -0.6110132718357876 -0.3312483104873341
-0.6633538257663322 -0.6078325316281944 -0.4364645636654023
-0.596311118766795 -0.5858141499783478 -0.5488486415399408
0 0 0
0 0 0
0 0 0
0 0 0
0 0 0
0 0 0
0 0 0
0 0 0
0 0 0
0 0 0
0 0 0
-0.5858525573679584 0.5947193821963436 -0.5505321402655994
-0.6547187371222232 0.622943638624415 -0.4281175053165366
-0.708219286983345 0.6317437690960274 -0.3151590895930927
-0.752317766962748 0.6231234828813419 -0.2138576690091091
-0.7919497523461886 0.5977066281946829 -0.1247492539895649
-0.8258867286582819 0.5616536420164121 -0.04956105160124096
-0.85495892403497 0.5185313498904539 0.01305669919043018
-0.8803574899710412 0.4698140903032227 0.06515681395251451
-0.9027381329318371 0.4163184639029568 0.1083642005656028
-0.9223690527231693 0.3584942877195144 0.1439346249206232
-0.9392280503009645 0.2967138270611084 0.172660285991303
-0.9530812395704621 0.2315723762597087 0.1949625228916133
-0.963606236513373 0.1639281930449402 0.2111647898622158
-0.9705210682424908 0.09463662561337439 0.221659119347632
-0.9736330483887043 0.02441207893345684 0.2268099148791009
-0.9728411164405809 -0.04614329638065657 0.2268280369834607
-0.9681328287685333 -0.1164575875427738 0.2217125530148303
-0.959589070031563 -0.1859076225786022 0.2112514438841334
-0.9473943882833105 -0.2537464262128882 0.1950810709255992
-0.9318353664963998 -0.3190897685451497 0.1728136839382887
-0.9132427025056604 -0.3810672716731264 0.144137090229257
-0.891846408491107 -0.4390954759763931 0.108651491653717
-0.8676415333708525 -0.4928456281894582 0.06558472645680175
-0.8403010367915119 -0.5419473230293912 0.0136845397579261
-0.8090677005128153 -0.5856955959291299 -0.04868392851985527
-0.7725938008602717 -0.6227583204864743 -0.1235754552374536
-0.729875539024058 -0.649749776629072 -0.2123839101834483
-0.6820780200038207 -0.6606555983106275 -0.3135342964469657
-0.6243210014102668 -0.6546170061935837 -0.4262626683164156
-0.5514168130990381 -0.6287479949790244 -0.5482841024884419
0 0 0
0 0 0
0 0 0
0 0 0
0 0 0
0 0 0
0 0 0
0 0 0
0 0 0
-0.5427467708045264 0.6175557656278728 -0.5692546171275469
-0.60814772530748 0.6618921606935783 -0.4382409289599997
-0.6610392447700233 0.6808232154349279 -0.315447089380648
-0.7044413802599343 0.6792173987308777 -0.2059758894597563
-0.7414080505203826 0.6618589524209957 -0.1107105673535603
-0.774466797337621 0.6319530211071667 -0.02892332856246838
-0.804282490121743 0.5928976165888766 0.04002614554010205
-0.8313472699963208 0.5471009618153291 0.09768446268678327
-0.8560630382825407 0.4958629437403789 0.145863002545507
-0.8785832843248633 0.4398486544048689 0.1860767952302544
-0.8988254941120024 0.3794239919988812 0.2194314595265388
-0.9165215897760312 0.314912057807521 0.2466142155713017
-0.9312765059054188 0.2467898885379515 0.267990336512381
-0.9426477988152314 0.1757440282582314 0.2837766091847044
-0.9502336707625733 0.1025775778731662 0.2941662989989831
-0.9537348969968391 0.02811502700873654 0.2993314074846238
-0.9529859318517633 -0.04682896142158181 0.2993741172259243
-0.9479687515711458 -0.1214369635031538 0.2942928982149865
-0.9388184371182899 -0.1948670090701284 0.2839837863379411
-0.9258181439010054 -0.2662490232994791 0.2682763910890594
-0.9093706298448995 -0.3347301442934238 0.2469833761142519
-0.8899314489461996 -0.3995832103514175 0.2198983269189919
-0.8679110302628341 -0.4603096740991577 0.1866693533465843
-0.8435840723500827 -0.5165931071996658 0.1466201707509721
-0.8170178867634278 -0.5681112021847998 0.09864803424682836
-0.7880042813566077 -0.6142874536052215 0.04123320151126499
-0.7560273528444438 -0.653964389213605 -0.02744484271222456
-0.7204166056431995 -0.6849297114240106 -0.1089550582678537
-0.6802902221405984 -0.7039907280894968 -0.2039663413995431
-0.6329172348574 -0.7080494329447422 -0.3131800988681934
-0.5753509411310727 -0.6921393744133956 -0.4357916714741366
-0.5056318369830682 -0.650421140553482 -0.5668234163743016
0 0 0
0 0 0
0 0 0
0 0 0
0 0 0
0 0 0
0 0 0
0 0 0
-0.5762560142728842 0.6730180125412112 -0.4636547862466286
-0.6115949256324907 0.7176479988187326 -0.3330660546078743
-0.6504006956115225 0.7287305044699269 -0.21431469152406
-0.6856461370058803 0.719427013835234 -0.1109691244131943
-0.7173813969293803 0.6963149786693068 -0.02256948870516778
-0.7467435847854639 0.6630316843872033 0.0525642852174545
-0.7743891135733301 0.6219625249050016 0.1161211367189744
-0.8005984563806633 0.5746284330988807 0.1698360253751359
-0.8254060323040852 0.5218668259567348 0.2153134872734868
-0.8486410854578161 0.4640926789311968 0.2538233508474821
-0.8699620082132891 0.4015399220819881 0.2862373058144089
-0.8888958093665787 0.334459904823684 0.3130508140156585
-0.9048859494235504 0.2632672921285205 0.3344723477825263
-0.9173562836454898 0.1886000797404704 0.3505530755506548
-0.925786034084527 0.111289952658992 0.3612959528298121
-0.929777443818471 0.03229740730069641 0.3667025803673083
-0.9291037582707107 -0.04734361099413664 0.3667762108769817
-0.9237362337411662 -0.1265643005287664 0.3615146584930531
-0.9138512696402188 -0.2042959298191175 0.3509117125949227
-0.8998153417880658 -0.2795173213728595 0.3349662934316934
-0.8821428499192707 -0.3513243865580726 0.3136800404008847
-0.8614270331158603 -0.4190095598040532 0.2870095040412763
-0.8382575242759523 -0.4821038628535638 0.2547551538564489
-0.8131447235321351 -0.5403278833411143 0.2164288268137087
-0.7864557807303074 -0.5934566565726711 0.1711622088121931
-0.7583535045692565 -0.6411320623019438 0.1176844968378689
-0.7287362467690662 -0.6826314221818109 0.05438588139372128
-0.6971744320367295 -0.7166089285832452 -0.02048059542680337
-0.6627741757093255 -0.740898667545081 -0.1086257632550709
-0.6241121109670422 -0.752083254064969 -0.2117896406798714
-0.5810218986547258 -0.7436787979383143 -0.3306892782971365
-0.5413158323638181 -0.7020569899402812 -0.4627020126477275
0 0 0
0 0 0
0 0 0
0 0 0
0 0 0
0 0 0
0 0 0
-0.455339363180177 0.7299737080687749 -0.5097101626090982
-0.5405467638193464 0.7580250099620867 -0.3649757257632475
-0.5875533176187184 0.7735981198944472 -0.2373332000606175
-0.623663758668464 0.7715518763223315 -0.125503857578215
-0.6549384183821649 0.7551081544570503 -0.02945069098569968
-0.683665028196262 0.7279197464036398 0.05229695992182095
-0.7110654180639898 0.6924840014799599 0.1218682851597794
-0.7377205955838267 0.6503069041568736 0.1812987955209466
-0.7637774860068136 0.6022138239662476 0.2323412621405428
-0.7890901841617713 0.5485817418576623 0.2763960089436064
-0.813302124207964 0.4895425270450578 0.314464257067718
-0.8358964896413025 0.4251641719730529 0.3471490824931203
-0.8562376307227124 0.355606375430773 0.3747015151922171
-0.8736186289290099 0.2812396816121524 0.3971079609815084
-0.8873242412693468 0.202707696497634 0.414204394757468
-0.896707497499411 0.1209239330594441 0.4257852349973847
-0.9012669891010648 0.03702145371173596 0.4316795412360543
-0.9007100941186729 -0.04771993909408698 0.4317917713037007
-0.8949921468604142 -0.1319550704846175 0.4261184300538828
-0.8843261193805083 -0.2143600597021523 0.414749417583557
-0.8691600753893114 -0.2937232489664172 0.3978535111895558
-0.8501236139973765 -0.3690336489346018 0.3756381328859627
-0.8279514953838217 -0.4395482976247102 0.3482723292868842
-0.80340003389266 -0.504810616000928 0.3157762301282918
-0.777170746615726 -0.5646010762388298 0.2779051192668268
-0.7498439672755808 -0.6188292649339906 0.2340606024124391
-0.721813329297683 -0.667388371963102 0.1832437682886763
-0.6932069518035144 -0.7099822991737891 0.1240534434474897
-0.6637758230387477 -0.7459263592587851 0.05473137411180681
-0.632729752183685 -0.7739097878951172 -0.02677127008019087
-0.5985341040416825 -0.7916581262932775 -0.1226145887439029
-0.5585701807077401 -0.7956714174363649 -0.2343210376789246
-0.5066989964401242 -0.7825135999820971 -0.3618405627477784
-0.416422174569742 -0.7560538350608352 -0.5049506619625428
0 0 0
0 0 0
0 0 0
0 0 0
0 0 0
-0.3797030790928621 0.7271970397493903 -0.5718479143156183
-0.4543968609468119 0.7842925877648442 -0.4223844570279631
-0.512691917371059 0.8114900551384564 -0.2804119973784499
-0.5541101055886137 0.8176023644646163 -0.1564875857901931
-0.5868492850538836 0.8081140070405034 -0.0505931641300106
-0.6155181814954142 0.7871450597313386 0.03924312919640145
-0.6424330940746089 0.7575731166506436 0.1155971131384965
-0.6687517606386034 0.7211077312967211 0.1810379035088041
-0.6949688005449809 0.6785947919736524 0.2377550726594607
-0.7211502848484511 0.6303292629072392 0.2874496251272797
-0.7470638577335726 0.5762931251189618 0.331333406720259
-0.7722550026042724 0.5163398502652981 0.3701558725465314
-0.796095532218385 0.4503507015822719 0.40424763347023
-0.8178250977123187 0.3783720910627527 0.4335858280163635
-0.8366016489225276 0.3007276668735008 0.4578870509164107
-0.8515704010957835 0.2180878349884335 0.4767237650963327
-0.8619504930276026 0.1314821778087289 0.4896465914188984
-0.8671276676553755 0.04225400130539347 0.4962904465736085
-0.8667353378404589 -0.04803206914758638 0.4964501732016884
-0.8607074569515974 -0.1377141604071193 0.4901198665339692
-0.8492918466983388 -0.2251720813272075 0.4774943904618128
-0.8330205108498051 -0.3089626215015898 0.4589323773916963
-0.8126425145886693 -0.3879306204483657 0.4348815668679804
-0.7890337513370826 -0.4612751191507437 0.4057721080895008
-0.76310203457846 -0.5285554934553998 0.3718929619666565
-0.7357018669149549 -0.5896365572401918 0.3332739014441171
-0.7075620306986914 -0.6445873716270009 0.2895912516850915
-0.6792180221406775 -0.6935518746661077 0.2401013859735776
-0.6509340642868897 -0.7365984364980995 0.1835962616708346
-0.6225950179054205 -0.7735390363875044 0.1183756852737907
-0.5935451071822399 -0.8036911209304533 0.04224674990545917
-0.5623335269835663 -0.8255527169584367 -0.04736787891351359
-0.5262405371950003 -0.836449709888577 -0.1530450255318088
-0.4802701213375275 -0.8323390924208617 -0.2766807651038509
-0.4162066944845455 -0.8075057996590822 -0.4179789121273868
-0.335860612559776 -0.7526081601739495 -0.5663732039658604
0 0 0
0 0 0
0 0 0
0 0 0
-0.406506368073394 0.7676934928599896 -0.4953779100204276
-0.4429138263704654 0.827410398107672 -0.345281588726037
-0.4816918074537858 0.8513989401992129 -0.2075881674363003
-0.5147622823828338 0.8527324244408654 -0.08869726570317116
-0.5433472805114313 0.8394249930829022 0.01180735993356851
-0.5696027535831112 0.8162141856591624 0.09668043359070787
-0.5950366453645838 0.7857120241916921 0.1690798796837042
-0.6204926394968944 0.7491601615349496 0.2318360125155376
-0.6463274617474166 0.7069501722466309 0.2871972600001607
-0.6725430408190923 0.6589821360974135 0.3367913338408486
-0.6988667518447456 0.6049103748489619 0.3816656934623051
-0.7247992402247303 0.5443253902073689 0.4223457481084053
-0.7496477134804678 0.4769072775080984 0.4588984139581649
-0.7725610868641576 0.4025658167899508 0.4910092974837753
-0.7925813618702767 0.3215629579909589 0.5180849822798974
-0.8087201371344569 0.2345993062617013 0.5393838200157224
-0.8200595643358012 0.1428423150790704 0.5541645820189401
-0.82586502225874 0.04788190444245448 0.5618311919398332
-0.8256879196369541 -0.0483861522258439 0.5620482538344691
-0.8194349603884531 -0.1439324799688933 0.5548060804489957
-0.8073865223905556 -0.2367919459081501 0.5404225918807577
-0.7901591391096696 -0.3252499015127298 0.5194815073199667
-0.7686216826751709 -0.4079820578572761 0.4927183266209307
-0.7437857135482451 -0.4841245948976269 0.4608754592476543
-0.7166934789582253 -0.5532684047602986 0.4245521516995872
-0.6883205888580102 -0.6153889623225405 0.3840718578674422
-0.6594986336759273 -0.6707339886776107 0.3393780614774726
-0.6308515257450731 -0.7196888983935877 0.289955586244061
-0.6027321239444667 -0.7626263544632607 0.2347659051980689
-0.5751421604874936 -0.7997266394529314 0.1721882614439741
-0.5476178193996993 -0.8307340255656983 0.09997851090773131
-0.5190666293699759 -0.8545967080450202 0.01530688972672016
-0.4875826173096037 -0.8689304134245026 -0.08498898707149526
-0.4505325948824562 -0.8692145667007816 -0.2036821493986467
-0.4064326907556769 -0.8475367434539932 -0.3413120806249024
-0.3643076151433197 -0.7905370470843199 -0.4922714075952305
0 0 0
0 0 0
0 0 0
-0.2897159311921662 0.7587045477407676 -0.5834655846328325
-0.368659472469227 0.8265437679691952 -0.4253417367129589
-0.4104599251094376 0.8687511782475899 -0.277117376165008
-0.4423815132934258 0.8850302795204701 -0.1449827611412341
-0.469658085091411 0.88227634135334 -0.03177641572665374
-0.4944915966894625 0.8668413393999159 0.06375071066949259
-0.5183514810031141 0.8428394638150103 0.1446837253387664
-0.5421999441737104 0.8124463322926891 0.2143599255508871
-0.5665854949965988 0.776521891006795 0.2756712347102783
-0.5917296051362131 0.7351181340191845 0.3308434727200958
-0.6175849848005556 0.6878294311147976 0.381417697860483
-0.6438663889971329 0.6340322748415421 0.4282979658824586
-0.6700654502246293 0.5730672209420445 0.4718116707935765
-0.6954626096879974 0.5044002991962642 0.5117734818224546
-0.7191502674405106 0.4277800512097971 0.5475647182088935
-0.7400806958192254 0.343385093496022 0.578244966463573
-0.7571481138971702 0.251938985183841 0.6027051363365781
-0.7693043347982896 0.1547601062353881 0.6198549426910879
-0.7756938013862615 0.05371851023414727 0.6288190901596056
-0.7757811432843481 -0.04890963093187556 0.6291037002963318
-0.7694397417514852 -0.1506715900089491 0.6206936086166688
-0.7569766710519686 -0.2492060806631197 0.6040551703641034
-0.7390870167204772 -0.3424906272268756 0.5800435776534085
-0.7167509777043487 -0.4290165005204727 0.5497389182521345
-0.6911015985065615 -0.5078637521743616 0.5142499292844416
-0.6632932355712237 -0.5786781409283145 0.474524702051649
-0.6343922936006644 -0.6415741706602832 0.4311948531251938
-0.6052976834394233 -0.6969966397076146 0.3844611796516788
-0.5766860104309224 -0.7455663687107166 0.3340120285570289
-0.5489687041217024 -0.7879186635673263 0.27895795650459
-0.5222454902023286 -0.8245214436563375 0.2177706061758519
-0.496238913023765 -0.8554376194337218 0.1482343430469431
-0.4701999131777717 -0.8799776805220659 0.0674634970233533
-0.4427958963528312 -0.8961888765666961 -0.02787995142059947
-0.4120412938414234 -0.9002060105868331 -0.1408939696112778
-0.3752377237304281 -0.8858612850633599 -0.2728487388929973
-0.3271568436641331 -0.8461129378936699 -0.4207865206641768
-0.2419560899859171 -0.7801897009275205 -0.5768546446769344
0 0 0
0 0 0
-0.3181505638666685 0.788895006514703 -0.5257612456310252
-0.3462273266320336 0.8636141774368442 -0.3664658112611832
-0.3733832483674244 0.9012035547933918 -0.2200388662630846
-0.397491213341306 0.9129252686021385 -0.0925645140654283
-0.4196519251599474 0.9075512973848872 0.01558538817473869
-0.4409863481237327 0.8911281184449819 0.1068724346368123
-0.4623393799974862 0.867236955131867 0.1847765173314706
-0.4842788023767616 0.8376212895939922 0.2527144965913635
-0.5071340596698579 0.8028078576542531 0.3135515734474262
-0.531027712760061 0.7625724875990412 0.3694492785726176
-0.5558869697450947 0.7162573486324009 0.4218590847637382
-0.581438503448495 0.6629930344790546 0.4715607097074871
-0.6071954302337014 0.6018780099163197 0.5187066325799973
-0.6324479544825897 0.5321518218084377 0.5628712316478326
-0.6562712996548086 0.4533776159626046 0.6031224739581942
-0.677565676907269 0.3656260101198831 0.6381397763821095
-0.695139412188083 0.2696298531362001 0.6663939825062626
-0.7078362794267643 0.1668642444770871 0.6863848231439607
-0.7146916571195916 0.05950765731924824 0.6969036331976078
-0.7150855821054748 -0.04973676646066278 0.6972652754346161
-0.7088522778177228 -0.1579388862708112 0.6874472753863828
-0.6963134404447097 -0.2622937552705315 0.6680939893474073
-0.6782252048266727 -0.3604417943333617 0.6403844817260674
-0.6556563042065827 -0.4506841115423776 0.6058041287061537
-0.6298331132257986 -0.5320601922826055 0.565881790900268
-0.6019895552021091 -0.6042990873847236 0.5219494117379158
-0.5732480956168777 -0.6676837746739559 0.4749578906690154
-0.5445411101897455 -0.7228748544107521 0.4253550565985464
-0.5165671618271338 -0.7707277780920263 0.3730108033277154
-0.4897684907833416 -0.8121161219910925 0.3171659342331014
-0.4643132472404953 -0.8477494368020166 0.2563866237518051
-0.4400672172939921 -0.8779516429764852 0.1885252154434838
-0.4165445634750063 -0.9023472963363933 0.1107248094774473
-0.3928420289735188 -0.9193977731923858 0.01956718990683958
-0.3675988525503212 -0.9257690217421273 -0.0884466052842687
-0.3391083302510217 -0.9156540444748402 -0.215831441618756
-0.3060136437013605 -0.8803729115959608 -0.3623522959726719
-0.2716071034683701 -0.8082613640794056 -0.5224396124740349
0 0 0
0 0 0
-0.2994071559647876 0.8292655377097254 -0.4718834844790359
-0.3118861564098193 0.8968371096661489 -0.313704039128566
-0.3292704629618018 0.9285635651767207 -0.1713203655355021
-0.3472366972126603 0.936504407876849 -0.0488484404671734
-0.3651174020437089 0.9293539572484849 0.05468550878828112
-0.3831986380588743 0.9126189906361296 0.1424267591434807
-0.401884077855609 0.8893460444792876 0.218066047644266
-0.4214919943522987 0.8608767410238508 0.2850188335199535
-0.4422210574575845 0.8274453164576867 0.3460849384375659
-0.4641436112292381 0.7885928912312138 0.4033509142851623
-0.4871909449021408 0.7434437144354398 0.4581882000573505
-0.5111269891607589 0.6909040742842649 0.51127366555384
-0.5355166273002707 0.6298363379566035 0.5626083267019404
-0.5596989342060175 0.5592444430148659 0.6115412954213639
-0.5827796315077097 0.4784860441229559 0.6568249437097392
-0.603659273824568 0.3875005314197307 0.6967343965063165
-0.6211115658121732 0.2870134444986484 0.729276151736344
-0.6339156398852813 0.1786556585741149 0.7524846291907117
-0.641027730877461 0.06493322261237361 0.7647660589011942
-0.641756229758867 -0.05098738268744727 0.7652118846256684
-0.6358915931840617 -0.1656556896981554 0.7537904710119805
-0.6237494826874117 -0.275787743055 0.7313533370593279
-0.6061135444994024 -0.3786701151805228 0.699453583194439
-0.5840984943585619 -0.4724188469339246 0.6600374095077353
-0.5589769279937041 -0.5560552137466368 0.615099498647091
-0.5320150175583823 -0.6294216313795725 0.5663818773970712
-0.5043477408299606 -0.6929968128625725 0.5151589790365985
-0.4769035252616441 -0.7476732717248653 0.4621122226702636
-0.4503714914260664 -0.794541604477789 0.4072703751373533
-0.4251952926124156 -0.8346980830802284 0.3499829613601695
-0.4015755877042493 -0.8690648786892249 0.288900128052704
-0.3794652065814214 -0.8981892524056933 0.2219509492140562
-0.3585474338556157 -0.9219693495519753 0.1463429402542521
-0.338204917305953 -0.9392428216070842 0.05865454773191994
-0.3175383706240575 -0.9471848584956986 -0.04483555528708691
-0.2956458325593921 -0.9405243593541802 -0.1673543281533888
-0.2728075930354169 -0.9107250631942808 -0.3100901102131365
-0.2543154596679138 -0.8454862741696377 -0.4695493660571176
0 0 0
0 0 0
-0.2500867759922685 0.8697568295509119 -0.4254170447024165
-0.2622201823483162 0.9268030098702301 -0.2688433686455686
-0.2768876357177015 0.9519276463113248 -0.1310228734795643
-0.2916031681172255 0.9564467611142273 -0.01331110431558997
-0.3063345683048408 0.9480075614955409 0.08626004642222439
-0.3214517596983352 0.9313234409953089 0.171188242702297
-0.3372944502854398 0.9088967330733934 0.2452329146243529
-0.3541091572760208 0.8817073133768663 0.3117674105339017
-0.3720538241046973 0.8497383374628973 0.3735247111167638
-0.3911977337336522 0.8123312078475102 0.4325301629697738
-0.4115039736489056 0.7684201919298189 0.4900968152372553
-0.4327971376969572 0.716707130136493 0.5468249511615511
-0.4547231174605519 0.6558284628259583 0.6025910004259085
-0.4767112913949194 0.5845519157418269 0.6565404804421032
-0.4979535107521295 0.5020193491670993 0.7071201271293798
-0.5174182146142809 0.4080228037184609 0.7521939795232979
-0.5339170590027625 0.303265144404051 0.789279941652789
-0.5462322015069271 0.1895255348553752 0.8159108123285773
-0.5532924383802342 0.06964269342476141 0.8300707035450646
-0.554361498413543 -0.05273709372197542 0.8306034721950364
-0.5491838768608028 -0.1736230261691451 0.8174668887361776
-0.5380389886616881 -0.2892395709092371 0.7917414459911439
-0.5216856190317755 -0.3965216752465373 0.7553904129356637
-0.5012190864603777 -0.4934175013547406 0.7108576487065945
-0.4778894537494491 -0.5789562218352313 0.6606295203768349
-0.4529313216057767 -0.6531201119792263 0.6068668200162921
-0.427438518178988 -0.7166029486126648 0.5511592575804062
-0.4022937934524414 -0.7705369252328722 0.4944012040866351
-0.3781447904821034 -0.8162430060060767 0.4367537894253572
-0.3554083546678368 -0.8550241976930485 0.377648676406603
-0.3342834243454729 -0.8879901065230665 0.315797661367238
-0.3147554511235371 -0.915877885216229 0.2491921053321433
-0.2965801158679445 -0.9388174664222189 0.1751056812679757
-0.2792452172180052 -0.9559779083184918 0.09015734838530803
-0.2619415308855513 -0.9650375469321809 -0.009442849593839368
-0.2436747097381722 -0.9614710958792989 -0.1272633789535588
-0.2239886407203154 -0.9377507533206493 -0.2654291119580136
-0.2060710880064002 -0.8823907494792411 -0.4229908650565886
0 0 0
-0.08198263815818956 0.8276213415908295 -0.5552672887754311
-0.1685413047104163 0.9058064730177443 -0.3887267189757662
-0.2007278653045544 0.9511054725059717 -0.2347481720045294
-0.2184320640031363 0.9706743362766447 -0.1003930590689639
-0.2318491183157382 0.9726530910592839 0.01385463059899075
-0.2440929702683839 0.9634266426670091 0.1105790489420683
-0.2563218763819001 0.9470132498021073 0.1935587776033743
-0.2690592078619159 0.925480624552987 0.266632249065508
-0.2825865670452339 0.8995256050344373 0.3331644008789331
-0.2970729675205387 0.8689331208759269 0.3958571502617604