# OOMMF: rectangular mesh v1.0
# Segment count: 1
# Begin: Segment
# Begin: Header
# Title: 
# Desc: time = 2.9e-09
# Desc: stepsize = 8.849159130921869e-14
# Desc: step = 18558
# meshunit: m
# valueunit: (none)
# valuemultiplier: 384000.0000000001
# xmin: 0
# ymin: 0
# zmin: 0
# xmax: 9.357999999999999e-08
# ymax: 9.357999999999999e-08
# zmax: 2.3395e-08
# ValueRangeMaxMag: 1
# ValueRangeMinMag: 0
# meshtype: rectangular
# xbase: 1.16975e-09
# ybase: 1.16975e-09
# zbase: 1.16975e-09
# xstepsize: 2.3395e-09
# ystepsize: 2.3395e-09
# zstepsize: 2.3395e-09
# xnodes: 40
# ynodes: 40
# znodes: 10
# End: Header
# Begin: Data Text
0 0 0
0 0 0
0 0 0
0 0 0
0 0 0
0 0 0
0 0 0
0 0 0
0 0 0
0 0 0
0 0 0
0 0 0
0 0 0
0 0 0
0 0 0
0 0 0
-0.8357423531148636 0.02959162126765068 -0.5483238597405571
-0.8455779964240575 0.04827970496637914 -0.5316642945053159
-0.8561155237514825 0.02913829449225181 -0.5159623724515259
-0.861655769716123 -0.00572027539465689 -0.507460947230744
-0.8604008197724147 -0.04509329929669331 -0.5076189749147433
-0.8524248854372056 -0.08032129880195006 -0.5166433040755816
-0.8397319002326146 -0.1000951279499403 -0.5336958882101369
-0.8284718801472415 -0.08172073311395148 -0.5540361590948845
0 0 0
0 0 0
0 0 0
0 0 0
0 0 0
0 0 0
0 0 0
0 0 0
0 0 0
0 0 0
0 0 0
0 0 0
0 0 0
0 0 0
0 0 0
0 0 0
0 0 0
0 0 0
0 0 0
0 0 0
0 0 0
0 0 0
0 0 0
0 0 0
0 0 0
0 0 0
0 0 0
0 0 0
-0.7799257116724747 0.2403892554509386 -0.57786580633909
-0.8079696615187151 0.270172068003144 -0.5236335357253549
-0.8451599393527018 0.252987204241375 -0.47085257926815
-0.8820230893271614 0.2048270643245516 -0.4243596866031877
-0.9143403068820362 0.1229784274861149 -0.385821344126923
-0.9276842142981612 0.08233561126716291 -0.3641741968608779
-0.9360468334713088 0.04337430379318129 -0.3491919176023296
-0.939933851424654 0.0004679387581848392 -0.3413563182062614
-0.9388208187999728 -0.04428129876856127 -0.341547415108235
-0.9327247270766765 -0.08747661952077143 -0.3498177018633518
-0.9221695584652175 -0.1269753430886737 -0.3653499249864143
-0.9064372626032039 -0.1682040952488862 -0.3874001436575795
-0.8704583184539905 -0.2498359314838385 -0.4241277203553824
-0.8300282634911968 -0.2992678653099193 -0.4706291816267152
-0.7897059765218873 -0.3181480573795213 -0.5245438820835188
-0.7595438292808629 -0.2898831538094528 -0.5822893855625807
0 0 0
0 0 0
0 0 0
0 0 0
0 0 0
0 0 0
0 0 0
0 0 0
0 0 0
0 0 0
0 0 0
0 0 0
0 0 0
0 0 0
0 0 0
0 0 0
0 0 0
0 0 0
0 0 0
0 0 0
0 0 0
0 0 0
-0.7526609841022898 0.3342266162701186 -0.5672689062400643
-0.7905668442260279 0.3627792150483311 -0.4933510980421705
-0.8461013218301489 0.3256847535534064 -0.4219502275152026
-0.8803318420043711 0.3046239285012539 -0.3636208329258011
-0.91065275062692 0.2715009708750464 -0.3114462884504022
-0.9376397406357481 0.2227582356242175 -0.2668529281123065
-0.959055995215731 0.1617231958071093 -0.2325020558590791
-0.9715624861315474 0.1083289532862961 -0.2105496934734926
-0.9787726693883597 0.05772316876711887 -0.1966522246145889
-0.9818063412205604 0.006873126183613082 -0.1897605556367284
-0.9807936415564859 -0.04442866007366884 -0.1899208436334073
-0.975718546229865 -0.09546688937255869 -0.1971278559123646
-0.9663886143768609 -0.1464437045553395 -0.2112990473212756
-0.9515263497746826 -0.2003474878209343 -0.2333634286007736
-0.9272785294754403 -0.2619450038110716 -0.2674683976702328
-0.8973672064179113 -0.3117247317880346 -0.3123456233683944
-0.8641936805382326 -0.3461923841476784 -0.3651302721987438
-0.8271675362892156 -0.3687606737280336 -0.4240394231918478
-0.7683742126718589 -0.4067303911358081 -0.4941370844486505
-0.7279101688861321 -0.3800931916896261 -0.5706802534373824
0 0 0
0 0 0
0 0 0
0 0 0
0 0 0
0 0 0
0 0 0
0 0 0
0 0 0
0 0 0
0 0 0
0 0 0
0 0 0
0 0 0
0 0 0
0 0 0
0 0 0
0 0 0
0 0 0
-0.7563530996503521 0.4148218608505312 -0.5058189522050416
-0.8077790780324523 0.4146671417901593 -0.4189798594355351
-0.8477916954896684 0.4049562442867362 -0.3424320097069403
-0.8860894828283951 0.3738131016316339 -0.2740605653308118
-0.9158524338417772 0.337740896437266 -0.2171299295349314
-0.9406879099814923 0.2943398794932857 -0.1687314178051298
-0.9615923954883863 0.2424329555239443 -0.128710244405141
-0.9779626635900183 0.1842428243838797 -0.09820188535342354
-0.9889694954768794 0.1261855699329082 -0.07756635196342079
-0.9955150446895905 0.06896400768981276 -0.06475925756246112
-0.9982098825332283 0.01193927729223665 -0.05860447142272447
-0.9972521158894103 -0.04514428470670569 -0.05873849600060582
-0.9926213774634259 -0.1022657132948101 -0.06515001831859885
-0.9840686195263556 -0.1596787423231706 -0.0781770510673214
-0.9709142146036137 -0.218014137980687 -0.09897183195831578
-0.952211179610952 -0.2765812374429045 -0.1296020390212682
-0.9288910847300467 -0.3290790197603419 -0.169906890568361
-0.9015734742304862 -0.3733122169950762 -0.2186395645947713
-0.8691633292530352 -0.4105138741789469 -0.2757416656734543
-0.8278702205394454 -0.443094820052321 -0.3439445862152369
-0.7847961681145527 -0.4547183922835115 -0.4211011258971089
-0.7305220550947478 -0.4558055512382141 -0.5085064665081196
0 0 0
0 0 0
0 0 0
0 0 0
0 0 0
0 0 0
0 0 0
0 0 0
0 0 0
0 0 0
0 0 0
0 0 0
0 0 0
0 0 0
0 0 0
0 0 0
-0.6509712527959596 0.504059479020657 -0.5675918160462518
-0.7025953773623372 0.5398223144993813 -0.4636287356038291
-0.7830269898819091 0.5052123414071235 -0.3628074188965931
-0.83283463134382 0.4788044970857172 -0.2777277991215429
-0.8696920674529146 0.4490942123728525 -0.2048172263816726
-0.9006583714254727 0.4106313989769109 -0.1421138703838571
-0.9261887916482281 0.3662231039105528 -0.08974943112529843
-0.9475644797246197 0.3162046917314938 -0.04621849944774496
-0.9653692684175247 0.260659385872069 -0.01090230029894231
-0.9794784372898172 0.2009073674130461 0.01606924402255154
-0.9896021311526245 0.1395359498074792 0.03489041028001296
-0.9958805210480589 0.07775081865322513 0.04665616782162107
-0.9985074201447263 0.0158358295614555 0.05227005278381863
-0.9975729158750909 -0.04613616210904346 0.05215105040472566
-0.9930624506149923 -0.1080867817549701 0.04630568851014572
-0.9848570387842985 -0.1699362839957931 0.03432597469443634
-0.9727398322459213 -0.2313931995624678 0.01531032195678416
-0.9565691642652836 -0.291264299025134 -0.01185504492666837
-0.9366609730774568 -0.3470152098843227 -0.04739900444661859
-0.9131148271417514 -0.3973877198584731 -0.0911280009633286
-0.885253709089419 -0.4423964894639369 -0.1435660706901544
-0.8516603820553109 -0.4818259044904178 -0.2061998821517414
-0.8117935775814661 -0.5129477921501336 -0.2790622689038902
-0.7583800165380248 -0.540922445940746 -0.3636793340200477
-0.6734456111812276 -0.5767377628992171 -0.4624333050578739
-0.6180227200007207 -0.5433881476089713 -0.5681348771207422
0 0 0
0 0 0
0 0 0
0 0 0
0 0 0
0 0 0
0 0 0
0 0 0
0 0 0
0 0 0
0 0 0
0 0 0
0 0 0
-0.6294905611994137 0.5499006929349932 -0.5489543344126733
-0.6928672990694966 0.5738732677118183 -0.436582613586363
-0.7444047721184686 0.5795798962582551 -0.3315851008421831
-0.7963897307052417 0.557137649792766 -0.2352892602959716
-0.8371571358643705 0.5248090008069268 -0.1540890734069037
-0.8696210652782173 0.4861516665621927 -0.08611480664311157
-0.8968539341841192 0.4413691326133362 -0.02909139932382361
-0.9200275500447561 0.3914276537206179 0.01826743171370793
-0.9398278412152026 0.3368149256917194 0.05726547570790459
-0.9565094913912106 0.2778947206616878 0.08867985739100862
-0.9699636522555074 0.2155068144164922 0.1128154521473533
-0.9799498144102066 0.1509784458014965 0.1300148843047041
-0.9863356511000456 0.08532690978819449 0.1409301310403339
-0.9890746476184039 0.01914102041621493 0.1461675845594881
-0.9881489757366216 -0.04721049293550406 0.1460574240066268
-0.9835493507419728 -0.1134086237499894 0.1406028403488936
-0.9752785707845398 -0.1790722639891681 0.1294790857175716
-0.9633784849520146 -0.2435969498033482 0.1120822054479
-0.9479898421189776 -0.3059633537781415 0.08775924671547197
-0.9293629828498293 -0.3648685636014797 0.05617274609505894
-0.9075849063688285 -0.4195220921372701 0.01705438184900863
-0.8823349057694654 -0.4696436475985402 -0.03033081487738635
-0.8528194700788393 -0.5148603594631912 -0.08727978980199495
-0.8177240475310363 -0.5543196563778957 -0.155103515893581
-0.773764359096236 -0.5878751860601693 -0.2359904282107901
-0.7178701004032338 -0.6120343506153025 -0.3317777458087796
-0.6621643038138008 -0.6087247500282886 -0.4370270168511111
-0.5950360886094517 -0.5865741035775718 -0.5494204894837216
0 0 0
0 0 0
0 0 0
0 0 0
0 0 0
0 0 0
0 0 0
0 0 0
0 0 0
0 0 0
0 0 0
-0.5867326919845381 0.5948719864698795 -0.5494288560586855
-0.6555215023069324 0.6229041020714577 -0.4269450077419956
-0.7089559179152184 0.6315159103024106 -0.313957260607088
-0.752996698099728 0.6227158910082894 -0.2126520438102077
-0.7925744339610095 0.597126686515028 -0.1235535789970012
-0.8264651384499658 0.5609047544058423 -0.04838627296868177
-0.8554961850598444 0.5176143214560325 0.01420181578752697
-0.8808532404067314 0.4687287367295048 0.06626417002364743
-0.9031871249996256 0.4150652792014243 0.1094250027934816
-0.9227618773192143 0.3570759883285823 0.1449388020009986
-0.9395523284102886 0.2951367675728262 0.1735964014761477
-0.9533232647214989 0.2298478101578097 0.1958181225178139
-0.963752642593419 0.1620730972658576 0.211927239959503
-0.9705600768054253 0.09267374470640513 0.2223166983236712
-0.9735554865051013 0.02236921885790797 0.2273528815377144
-0.9726413021282418 -0.04823456422464269 0.2272494757053054
-0.9678092196002976 -0.1185636390927434 0.2220089591474811
-0.959144560272527 -0.1879947980884518 0.2114229608895451
-0.9468361740887976 -0.2557831563666444 0.1951313310465644
-0.9311743101882138 -0.3210484925507767 0.172749151883236
-0.9124920439779836 -0.382925640351294 0.1439660502980901
-0.8910197879497138 -0.4408365354760119 0.1083830543560814
-0.8667509470229806 -0.4944573479803281 0.06522826736182906
-0.839355144384026 -0.5434219274773479 0.01324954085522033
-0.8080704605820314 -0.5870287086655185 -0.04918766041637726
-0.7715432389053364 -0.6239479159966982 -0.1241371363566916
-0.7287658500177427 -0.6507953584886815 -0.2129923407484528
-0.6809063000763719 -0.6615563912806504 -0.314181081021802
-0.6230761598740459 -0.6553688946595029 -0.4269282268829193
-0.5500825913912618 -0.62935028264342 -0.5489329325017047
0 0 0
0 0 0
0 0 0
0 0 0
0 0 0
0 0 0
0 0 0
0 0 0
0 0 0
-0.5435619605724082 0.6178771939292569 -0.5681268944881824
-0.6088928589859078 0.66200959709547 -0.4370272069670951
-0.6617217081154924 0.6807415113632621 -0.3141900312161034
-0.7050724710013615 0.6789467512101164 -0.2047049575786141
-0.7419980373912104 0.6614084559087881 -0.109442984973657
-0.7750226202438953 0.6313274997245835 -0.02766814416964213
-0.8048094094530048 0.5920972666960977 0.04126307340607663
-0.8318468711675465 0.5461227407603362 0.09889759831856934
-0.8565319800589052 0.4947025868516725 0.1470452913174511
-0.8790133337562022 0.4385028382965293 0.1872186419262108
-0.8992041212950483 0.3778924267962446 0.220520434463666
-0.9168330672523975 0.3131993977125428 0.2476353449430442
-0.9315034543844686 0.2449073395244909 0.2689269594459389
-0.9427729861747015 0.1737103164402946 0.2846117047864476
-0.9502417630976043 0.1004190142798928 0.2948840674506008
-0.9536140445064006 0.02586460083711658 0.299918783245866
-0.9527290665855792 -0.04913330606024807 0.2998220204030386
-0.9475744625209482 -0.1237546845390099 0.2945970400950857
-0.9382912621148795 -0.1971576820816924 0.2841449556741068
-0.9251681868523524 -0.2684750942314846 0.2683001114679708
-0.9086124599486541 -0.3368592709125796 0.2468789768819939
-0.8890823586114799 -0.4015897533162298 0.2196775583377987
-0.8669888865130843 -0.4621751100960387 0.1863449443116611
-0.8426051977060925 -0.5183055851116929 0.1462046553318393
-0.815995249816909 -0.5696645851069593 0.09815300683705681
-0.7869461050456732 -0.6156800015588962 0.04066894925961311
-0.7549363140152321 -0.6551971272487636 -0.02806931110771244
-0.7192903857237208 -0.686004541745846 -0.1096317002946315
-0.6791228173161395 -0.7049081434183487 -0.2046868543485035
-0.6316965103104802 -0.7088067476215604 -0.3139307461649882
-0.5740606895435373 -0.6927328889441847 -0.4365495038318584
-0.5042565445354733 -0.6508508831516231 -0.5675548125017494
0 0 0
0 0 0
0 0 0
0 0 0
0 0 0
0 0 0
0 0 0
0 0 0
-0.5769161737294185 0.6733080158094454 -0.4624111204719824
-0.6122119603940492 0.717723054940434 -0.3317681900927894
-0.6509735020447986 0.728606833754616 -0.2129919750638583
-0.686184471893455 0.7191174411417594 -0.1096402133253481
-0.7178953132628364 0.6958268687194855 -0.02124353933056953
-0.7472400412358327 0.6623661301839735 0.05388348874171231
-0.7748714758921807 0.6211152176301029 0.1174311810252395
-0.80106569782268 0.5735915317064623 0.1711329966035087
-0.8258521466576494 0.5206312892233724 0.2165901487661906
-0.8490550221297173 0.4626508067811868 0.2550682269139413
-0.8703281264366847 0.3998879133548721 0.2874345300862368
-0.8891948721120094 0.3326003027700998 0.3141807091578737
-0.9050966922886435 0.261211037858282 0.3355126991771771
-0.9174574253382491 0.1863678134125863 0.3514810248299642
-0.9257585069381612 0.1089121781245093 0.3620902156753215
-0.929606546953601 0.02981339415884877 0.3673456538326412
-0.9287809599100588 -0.04988812349631906 0.3672561825790887
-0.9232603249016118 -0.129120294108123 0.3618263701169406
-0.9132286641859914 -0.2068147766539449 0.3510570538625424
-0.8990594077958824 -0.2819543658832736 0.3349536039708748
-0.8812723499718478 -0.3536418732028702 0.3135226797101949
-0.8604639029519362 -0.4211784255983474 0.2867239186521027
-0.8372243870709509 -0.4841042375017702 0.2543588271055276
-0.812062536445566 -0.5421484879171923 0.2159385420685592
-0.7853418886258782 -0.5950934558145273 0.170592780668647
-0.7572202036878665 -0.6425864275061011 0.1170480512945503
-0.7275899445139199 -0.6839079435078325 0.05369168882720569
-0.6960154877213688 -0.7177129761035381 -0.02122556912279905
-0.6615971303939167 -0.7418338959087866 -0.1094153002798329
-0.6229058134344791 -0.7528499044959523 -0.2126155424468422
-0.5797728523500523 -0.7442744332047512 -0.3315403561493384
-0.5400195463341604 -0.7024799378162182 -0.4635739709504507
0 0 0
0 0 0
0 0 0
0 0 0
0 0 0
0 0 0
0 0 0
-0.4560006096374126 0.7304132872739529 -0.5084878305170785
-0.5411111494796806 0.7582561324280934 -0.3636569283596395
-0.5880639399508754 0.7736261727698842 -0.2359731919834833
-0.6241395863185691 0.7713898218180835 -0.1241270300359687
-0.6553933199947582 0.7547660709195209 -0.02806731720269474
-0.6841093895956181 0.7274010715464206 0.05368448733320699
-0.7115056011157498 0.6917850718896577 0.1232606745541174
-0.7381585900423298 0.6494182090632966 0.1826961567295255
-0.7642104689999069 0.6011220953595404 0.2337404234220023
-0.7895100983366313 0.547272524416348 0.2777887482304488
-0.8136955309803464 0.4880030519426545 0.3158363566109295
-0.8362448576840202 0.4233864387922088 0.3484802167180848
-0.8565182528953507 0.3535902144482416 0.3759660126973472
-0.8738062457444077 0.2789954554161247 0.3982765129344339
-0.8873933499439089 0.200258095338514 0.4152465986937363
-0.8966350908881849 0.1183043750262508 0.4266726949754153
-0.9010353600816452 0.03427875675295231 0.432388999302724
-0.9003092110926132 -0.05053055917418951 0.4323077457221181
-0.8944211636448632 -0.1347743112744036 0.4264348332918856
-0.8835936739611501 -0.2171294449213749 0.4148698874152854
-0.8682833036242273 -0.2963898193402512 0.3977903714757943
-0.8491260431793887 -0.3715536190816526 0.3754102701603145
-0.8268602503862948 -0.4418891626404504 0.3479024206182456
-0.8022428621690307 -0.5069515819228678 0.3152879377406352
-0.7759733372484721 -0.5665320977943857 0.2773206844938919
-0.7486278225216638 -0.6205491345105282 0.2333991323992137
-0.7205942877880933 -0.6689022591905501 0.1825202456083926
-0.6919943185192564 -0.711299002247025 0.1232785161309786
-0.662572013260196 -0.7470554373192545 0.05391197284525706
-0.6315302305653275 -0.7748587848610126 -0.0276302624999924
-0.597327477400529 -0.7924303201927132 -0.1235073778427576
-0.5573387125036892 -0.7962647272895804 -0.2352361443723718
-0.5054171425164288 -0.7829211724580586 -0.3627505337934404
-0.4150374492138281 -0.7562676508636527 -0.5057698646689525
0 0 0
0 0 0
0 0 0
0 0 0
0 0 0
-0.3802983368314474 0.7278259668623009 -0.5706509764857947
-0.4549179323424276 0.7846976751343357 -0.4210691552133189
-0.5131453820717629 0.8116794790708555 -0.2790308945505653
-0.5545196804667312 0.8175935783367195 -0.155076318751872
-0.5872342288046124 0.8079224039065344 -0.0491665514973168
-0.6158929298178083 0.7867787619840888 0.04068265835979891
-0.6428077093053033 0.7570316007590951 0.1170529978675906
-0.6691319269745019 0.72038243280687 0.1825146975085693
-0.6953556160340849 0.6776707451632252 0.239254944358056
-0.7215398341563493 0.6291873672067809 0.2889697642886306
-0.7474467236484561 0.5749128999596086 0.3328641656400112
-0.772615924221246 0.5147026925635622 0.371679663026602
-0.7964135106490826 0.4484435572713823 0.4057387040909348
-0.8180741926910646 0.3761913262141335 0.435011150815831
-0.8367526929215605 0.2982826186012871 0.4592084606460066
-0.8515936259797438 0.2154033560590305 0.4779013395975971
-0.8618188659274204 0.1285993876123467 0.4906428842216135
-0.8668204136211461 0.03922873898674969 0.4970749204769577
-0.8662410039996128 -0.05113317265285088 0.4970029392711838
-0.8600258193026836 -0.1408194347834512 0.4904339679508511
-0.8484342212429717 -0.2282113820990595 0.4775761062953927
-0.8320083591973506 -0.3118734325842763 0.458799577456031
-0.8115046906957714 -0.3906626140673697 0.4345605354249383
-0.7878029860364547 -0.4637925342319433 0.4052936471038703
-0.7618113709253291 -0.530837314580326 0.3712885408654807
-0.7343815772019192 -0.5916749315253179 0.3325725100950633
-0.7062373248889258 -0.6463849137419111 0.2888172159352612
-0.6779075716653434 -0.6951184385769925 0.2392732342513057
-0.6496492322605416 -0.7379477537765636 0.1827265380819435
-0.621339563834444 -0.7746854492306406 0.1174717036751518
-0.592315132346408 -0.8046465533856416 0.04131232404578856
-0.5611174460440781 -0.8263240751067767 -0.04832943868803383
-0.5250189904004869 -0.8370370570260819 -0.1540260526143822
-0.4790155412800846 -0.8327354656208514 -0.2776612243532944
-0.4148842486058057 -0.8077011848359213 -0.4189150943490149
-0.3344531712828586 -0.7526033385494632 -0.5672118572659077
0 0 0
0 0 0
0 0 0
0 0 0
-0.4069346900909125 0.7682984203713193 -0.4940867284754244
-0.443298117719382 0.8277806146566875 -0.3438982884881063
-0.482031103950088 0.8515547332069572 -0.206156618078312
-0.5150710094074219 0.8526962549033185 -0.08724077109857305
-0.5436410088471486 0.8392127341179964 0.01328308675915433
-0.5698941996328958 0.8158316665180788 0.0981799018695502
-0.5953347859596351 0.7851548703271036 0.1706116122308919
-0.6208024293691394 0.7484150223993744 0.2334080074383005
-0.6466494569459448 0.7059965892831472 0.2888136003585654
-0.6728728163470893 0.6577948814289286 0.3384495043385901
-0.6991941813639532 0.6034623870997075 0.3833544627400513
-0.7251079067708088 0.5425914232468519 0.4240437134982794
-0.7499147469409095 0.4748682957490162 0.46057352726028
-0.7727578233751735 0.4002138444052747 0.4926197571746528
-0.792675093579691 0.318905776648836 0.5195818526838963
-0.8086770902790912 0.2316639970345207 0.5407154114094875
-0.8198488483680091 0.1396765691717947 0.5552822001955813
-0.8254629741926132 0.04455222207659923 0.5626952796542032
-0.8250819153649224 -0.05179953299439376 0.5626336652914693
-0.8186257908003527 -0.1473432281439599 0.5551052042240403
-0.8063886724425743 -0.2401163143009252 0.5404456166561453
-0.7889989164958935 -0.3284146275327657 0.5192538321387913
-0.7673336676001914 -0.4109299608651602 0.4922759488646545
-0.7424084207569515 -0.4868171501903364 0.4602594910153706
-0.7152651103880302 -0.5556854051415318 0.4238036719688608
-0.6868755632159501 -0.6175260086260971 0.3832278556252043
-0.6580651708867821 -0.6725987445436926 0.3384688459873347
-0.6294502867008365 -0.7212969321439882 0.2890035851886704
-0.6013756571731581 -0.7639971050282233 0.2337856763534612
-0.5738348656981063 -0.8008797659928716 0.1711874625445412
-0.5463561116549943 -0.8316862171114843 0.09895976719871252
-0.517839135224846 -0.8553589767331748 0.01427063248629288
-0.486370467751547 -0.869506080822898 -0.0860403597804229
-0.4493105877112694 -0.8695987952385614 -0.2047386897735635
-0.4051742815194427 -0.847719937251678 -0.3423517337201808
-0.3630016121984173 -0.7905152978779243 -0.4932701018329877
0 0 0
0 0 0
0 0 0
-0.2900957232553413 0.759500616663097 -0.5822398858179807
-0.3689673692429803 0.8271054753443859 -0.4239806753724171
-0.4107210077447847 0.8690840302172105 -0.2756831554856381
-0.4426083305133343 0.8851568689525611 -0.1435102195186695
-0.4698638971370651 0.8822194244864304 -0.03027879168659739
-0.4946890880859942 0.866615141055083 0.06527559592011035
-0.5185511262180923 0.8424468743781625 0.1462463447352164
-0.5424092924316127 0.8118791187292109 0.2159732762526795
-0.5668087225752282 0.7757620593326073 0.2773465329018364
-0.5919669544155889 0.7341397556183332 0.3325867467302109
-0.6178319422317262 0.6866009542270179 0.3832268529379437
-0.6441127185786722 0.6325195668512257 0.4301602065690517
-0.6702942872785905 0.5712376470409629 0.4737015083834861
-0.6956500195875928 0.5022279119998649 0.5136518029327231
-0.7192656790075864 0.425251647957681 0.549379576350479
-0.7400886607564283 0.3405063241330459 0.5799346665316331
-0.7570115588510974 0.2487392342058898 0.6042038506435541
-0.7689891426118275 0.1512945513397631 0.6211003600707582
-0.7751739682355653 0.05006609073851979 0.629760832005364
-0.7750434048733346 -0.05265274172887716 0.6297105758606726
-0.7684864044543348 -0.15440201015959 0.6209578612333736
-0.7558258481734326 -0.2528245871573814 0.6039925623396452
-0.7377701651918204 -0.3459122316860058 0.5796894956119529
-0.7153084754526169 -0.4321772085067026 0.5491417352496588
-0.6895774910370335 -0.5107231512709299 0.5134634812827102
-0.6617303258868311 -0.5812182166875494 0.4736014784523507
-0.6328283229216384 -0.6437954998887262 0.4301809712565292
-0.6037629189127677 -0.6989133168035652 0.3833934184888587
-0.5752020976231375 -0.747200759396673 0.3329167644426719
-0.5475484663856534 -0.7892966541768074 0.277851522695154
-0.5208932452953977 -0.8256684416366498 0.2166606828451681
-0.4949509854770896 -0.8563752789975612 0.1471220700544492
-0.4689651282891546 -0.880721223989623 0.06634631913645374
-0.4415961438169651 -0.8967449946098657 -0.02900448944796477
-0.4108526256361895 -0.9005718004863645 -0.1420230691704563
-0.3740328367522725 -0.8860254681526459 -0.2739677112652727
-0.3259077036755696 -0.8460607420662476 -0.4218594427285311
-0.2406219490860402 -0.7799102907501808 -0.5777897679952485
0 0 0
0 0 0
-0.3183552903532835 0.7896709693929955 -0.5244708468561456
-0.3463986402557743 0.8641418324002037 -0.365057359225873
-0.3735217839275978 0.9015040263121403 -0.2185679927952491
-0.3976047841543665 0.913027221760348 -0.0910589256588256
-0.4197504307929893 0.9074780826477845 0.01712032017807996
-0.4410793683404105 0.8908920175349153 0.1084453960156545
-0.4624349859990139 0.8668378062376539 0.1864030616733066
-0.4843829527192965 0.8370471206616835 0.2544116210139
-0.5072500962791814 0.8020362055150928 0.3153335771333466
-0.5311556415001263 0.7615720544172344 0.3713242389520263
-0.5560224740183276 0.7149901631932214 0.4238255241528854
-0.5815717319575529 0.6614175639170912 0.4736043989764796
-0.6073098325711356 0.5999536339477626 0.5207978536584924
-0.6325195201484659 0.5298449166365594 0.5649632031783584
-0.6562687609841119 0.4506689729396756 0.6051518736531152
-0.6774521599803104 0.3625186685642835 0.6400303007517616
-0.6948758953426941 0.2661556136434776 0.6680633797760153
-0.7073866651557799 0.1630867340929922 0.6877549150116384
-0.7140286955129952 0.05552003193389403 0.697911561759847
-0.7141962208622471 -0.05382010220516226 0.6978733084913833
-0.7077409358801533 -0.1619952794764004 0.6876483818833919
-0.6950021163089387 -0.2662069360127987 0.667911615069519
-0.6767504023079411 -0.3641145181748544 0.6398667913170153
-0.6540636859894978 -0.4540460923735487 0.6050147441758276
-0.6281713961082207 -0.5350704492167201 0.5648896454056012
-0.6003050026279898 -0.6069434926678183 0.5208200270035694
-0.5715805104802576 -0.6699695643407922 0.4737472985634185
-0.5429215366222802 -0.7248239523956994 0.4241066411943796
-0.5150170893600069 -0.7723703431388216 0.3717545570759894
-0.4883000577477413 -0.81348507460783 0.3159194311748565
-0.4629299766554345 -0.848876167584003 0.2551569885809398
-0.4387648713478075 -0.8788627431875007 0.1873116822520217
-0.4153119365775326 -0.9030620076079374 0.1095217136066648
-0.3916616836730555 -0.9199259511323377 0.01836763391541417
-0.3664481361264749 -0.9261098004182742 -0.08964597647778712
-0.3379612437265855 -0.9157962155931844 -0.217024167419162
-0.3048442311567565 -0.8802992388038922 -0.3635151233329
-0.2703965011839413 -0.8079607590552648 -0.5235314164157893
0 0 0
0 0 0
-0.2994708224648555 0.8300046612417726 -0.4705416972056276
-0.3119293549432542 0.897326051057506 -0.3122595644943914
-0.3292895605968785 0.928831932829588 -0.1698223360985403
-0.3472357928495244 0.936583399565861 -0.04731638005824217
-0.3651030105078445 0.9292660324160704 0.05625329071087962
-0.3831773181146051 0.9123740079345013 0.1440444810745362
-0.4018614742396471 0.8889407712781353 0.2197536363325312
-0.4214723667846608 0.8602956415912897 0.2867968847389509
-0.4422067696504996 0.8266616998286265 0.3479706983521961
-0.4641343838787047 0.7875702815830411 0.4053545673465936
-0.4871827692593272 0.7421378088041213 0.4603090506173328
-0.5111108072496987 0.6892658440291007 0.5134961917749846
-0.535476957383867 0.6278168999115704 0.56489854690585
-0.5596128854726464 0.5568020512465789 0.6138443566088883
-0.5826168288073933 0.4755950351361035 0.6590652420999795
-0.6033833551181536 0.3841610875194142 0.6988195658410405
-0.6206836359060502 0.2832600444081122 0.7311057183201066
-0.6332996483256851 0.1745613157707109 0.7539627991266949
-0.6401968846757927 0.06060692243374767 0.7658163943168876
-0.6406989079286566 -0.05541107970325743 0.7657901289682084
-0.6346148896409217 -0.1700331658851209 0.7538916794507835
-0.6222791695047237 -0.279984792200266 0.7310110473427093
-0.6044903846665652 -0.3825774017174586 0.6987316412906929
-0.5823721294804556 -0.4759609306729995 0.6590173709981331
-0.5571990753439762 -0.5591922731215528 0.6138674059737721
-0.5302336135337903 -0.6321453030847193 0.5650173721814461
-0.5026029115432976 -0.6953226407995544 0.5137282730196316
-0.475225580644263 -0.7496322247812081 0.4606649271117771
-0.4487805299172305 -0.7961723609812381 0.4058393864286342
-0.4237018542683651 -0.8360408874967389 0.3485862491883659
-0.4001817526852752 -0.8701570531029215 0.2875435058438634
-0.3781657592305835 -0.899062031003772 0.2206311921577002
-0.3573308549279177 -0.9226455662299178 0.1450510918013275
-0.337054241293476 -0.9397350811616537 0.05737957528754256
-0.3164321393529829 -0.9474942126825759 -0.04610225718464461
-0.2945597331813314 -0.9406402850656677 -0.1686132192318309
-0.271717753899275 -0.9106287593620865 -0.3113273596049655
-0.2532050409115914 -0.8451602590941608 -0.4707348974793024
0 0 0
0 0 0
-0.2500355892137134 0.8704481885167222 -0.4240308423151635
-0.2621475643184584 0.927249373477771 -0.2673710042375199
-0.2767914517386228 0.9521633036069053 -0.1295049632593638
-0.2914864862962839 0.956502671325075 -0.01175874375265924
-0.3062014708744547 0.9479040961531288 0.08785490157321839
-0.321306087842174 0.9310677557790171 0.1728445314847453
-0.337139436221586 0.9084826331767933 0.246974301821769
-0.3539471878018646 0.8811159700819197 0.3136176581663543
-0.3718860584570882 0.848939154010162 0.3755037580554435
-0.3910234039507572 0.8112828762325929 0.4346501953232433
-0.4113193660448514 0.7670723917916594 0.4923579235347834
-0.4325942688526134 0.7150036064563019 0.5492103798275795
-0.4544883400174242 0.6537122421658383 0.6050625201007894
-0.4764241583684238 0.5819732370591812 0.6590350314435465
-0.497586511509278 0.4989461726496995 0.7095494206623264
-0.5169379932007606 0.4044526643320627 0.754448907150289
-0.5332876789864752 0.2992356683831123 0.7912409659569767
-0.5454204212300329 0.1851199776042743 0.8174638573032118
-0.5522742381146207 0.06498700788428019 0.8311256551937037
-0.5531281400055601 -0.05748705054033357 0.83111040166404
-0.547745524999997 -0.1783020207709413 0.8174247544768116
-0.5364244502110477 -0.2936956537866631 0.7911963549983019
-0.51993825664321 -0.400634543944246 0.7544243974563688
-0.4993902221672235 -0.4971083363663674 0.7095722006384078
-0.4760312836611725 -0.5821883664693227 0.6591289122195123
-0.451091009812549 -0.6558927733862726 0.6052450501127272
-0.4256544228690541 -0.7189413208851472 0.5494922105143359
-0.4005938393005417 -0.7724818002451036 0.4927437916448414
-0.3765465247615886 -0.8178418453529875 0.4351407021637823
-0.3539199579710294 -0.8563244326337864 0.3760972340023361
-0.3329051031964775 -0.8890345783879735 0.3143114867392854
-0.3134807644325683 -0.9167018883154272 0.2477649254630326
-0.2953970688693071 -0.9394467498230369 0.1737250009364034
-0.2781370840889071 -0.9564271320112634 0.08880824064932713
-0.2608876109988217 -0.9653090645752238 -0.01077331315022821
-0.2426513965704849 -0.9615546678423031 -0.1285804047787623
-0.2229715849520666 -0.9376259247661075 -0.2667232601601605
-0.2050399829987139 -0.8820346972376293 -0.4242327170796825
0 0 0
-0.08192380139201397 0.8285045817987261 -0.553957262524826
-0.1684014222625394 0.906443794888073 -0.3872991191428946
-0.2005473337982485 0.9515106040322348 -0.2332559480927005
-0.2182224233225373 0.9708785612058312 -0.09886249718742596
-0.2316146831726168 0.9726853809458803 0.01542038368573525
-0.2438357908617436 0.9633051312821675 0.112193275824682
-0.2560430830767093 0.9467426473510093 0.1952442042555302
-0.2687594502253484 0.9250521350211883 0.2684155461356679
-0.2822660987718694 0.8989174973595706 0.3350719063498387