# OOMMF: rectangular mesh v1.0
# Segment count: 1
# Begin: Segment
# Begin: Header
# Title: 
# Desc: time = 1.1e-09
# Desc: stepsize = 8.751808769910872e-14
# Desc: step = 7038
# meshunit: m
# valueunit: (none)
# valuemultiplier: 384000.0000000001
# xmin: 0
# ymin: 0
# zmin: 0
# xmax: 9.357999999999999e-08
# ymax: 9.357999999999999e-08
# zmax: 2.3395e-08
# ValueRangeMaxMag: 1
# ValueRangeMinMag: 0
# meshtype: rectangular
# xbase: 1.16975e-09
# ybase: 1.16975e-09
# zbase: 1.16975e-09
# xstepsize: 2.3395e-09
# ystepsize: 2.3395e-09
# zstepsize: 2.3395e-09
# xnodes: 40
# ynodes: 40
# znodes: 10
# End: Header
# Begin: Data Text
0 0 0
0 0 0
0 0 0
0 0 0
0 0 0
0 0 0
0 0 0
0 0 0
0 0 0
0 0 0
0 0 0
0 0 0
0 0 0
0 0 0
0 0 0
0 0 0
-0.8323231026765017 0.03901416625772645 -0.5529160402648626
-0.8426536576858282 0.05839630031811376 -0.5352800064432174
-0.8539047121135531 0.03975257987420535 -0.5189089274849819
-0.8602524433463449 0.005270220599745365 -0.5098411110252614
-0.8598397584185691 -0.03382634047794178 -0.509442213143519
-0.8526971640413072 -0.06886889181093502 -0.5178461375511502
-0.840768543781015 -0.08854999291135106 -0.5341040671477333
-0.830070118918832 -0.07022296644264732 -0.5532199677000735
0 0 0
0 0 0
0 0 0
0 0 0
0 0 0
0 0 0
0 0 0
0 0 0
0 0 0
0 0 0
0 0 0
0 0 0
0 0 0
0 0 0
0 0 0
0 0 0
0 0 0
0 0 0
0 0 0
0 0 0
0 0 0
0 0 0
0 0 0
0 0 0
0 0 0
0 0 0
0 0 0
0 0 0
-0.7737194175623376 0.2471269032916301 -0.5833408579522661
-0.8021925313898171 0.277848167279457 -0.5284766206009911
-0.8400622512652937 0.2614438592677278 -0.4753341166487867
-0.8777769690494609 0.2139459352203192 -0.4286428926379674
-0.9111590933293435 0.1326510552920238 -0.3901189615657773
-0.9252191710896944 0.09260120147449753 -0.3679599202815131
-0.9342908836745728 0.05413056068294191 -0.352378244338006
-0.9389237928057106 0.01160186191047069 -0.3439295103702918
-0.9385797748444468 -0.03287899121179 -0.3434923262459325
-0.9332538269682066 -0.07591496836116626 -0.3511042751490205
-0.9234568355222705 -0.1153713071588442 -0.3659466278183925
-0.9085139356333092 -0.1566911310415743 -0.3873632897074619
-0.8736760886759998 -0.2385166794850337 -0.424028166143759
-0.8341886291137839 -0.2881973552784189 -0.4701825342011227
-0.794652808387581 -0.3073806139167746 -0.5234921893494463
-0.7650324418809121 -0.2795020412196055 -0.580175811132972
0 0 0
0 0 0
0 0 0
0 0 0
0 0 0
0 0 0
0 0 0
0 0 0
0 0 0
0 0 0
0 0 0
0 0 0
0 0 0
0 0 0
0 0 0
0 0 0
0 0 0
0 0 0
0 0 0
0 0 0
0 0 0
0 0 0
-0.7457657537678131 0.3391042662101962 -0.5734472400711066
-0.7841153396458178 0.3687282002157865 -0.4992020117124431
-0.8404512674637856 0.3325807769054395 -0.4278220352570563
-0.875275269362055 0.312446748539562 -0.3691479813980257
-0.9062482001028068 0.2801503561725752 -0.316591183937269
-0.9339817745885498 0.2321449323652872 -0.2716372123136646
-0.956219527246037 0.1717784274210558 -0.2369311874492546
-0.9694546195927738 0.1189956313386108 -0.2144709310665547
-0.9773743472030085 0.06889878529772769 -0.1999808561187538
-0.9811325954526164 0.01843812627063781 -0.1924548405211983
-0.9808619504839707 -0.03259972028374226 -0.1919559645601085
-0.9765395614670841 -0.08350408794871841 -0.1984881663614418
-0.967974820806646 -0.1344830522043698 -0.211988336835161
-0.9539207331427338 -0.1885266622105874 -0.2334372132205224
-0.9305847905798674 -0.2503758075423049 -0.2670653525618069
-0.9015148578280319 -0.3004771898090147 -0.3114232160899063
-0.8690968081684946 -0.3353423207616646 -0.3636155468864267
-0.8327830544449908 -0.3584112135404026 -0.4219168001369072
-0.7749393735289448 -0.3969753077955813 -0.4918125378181909
-0.7350483256504569 -0.3709466474623045 -0.5675407859307874
0 0 0
0 0 0
0 0 0
0 0 0
0 0 0
0 0 0
0 0 0
0 0 0
0 0 0
0 0 0
0 0 0
0 0 0
0 0 0
0 0 0
0 0 0
0 0 0
0 0 0
0 0 0
0 0 0
-0.7495805931483932 0.4187603846394337 -0.512609670833409
-0.8015944842628446 0.4197380427979289 -0.4257537530398849
-0.842125982817987 0.4111224796764087 -0.349001627170361
-0.8810264555342443 0.3810090138574821 -0.2804006348211691
-0.9113538596624071 0.3459101345236243 -0.2231150405335348
-0.9367838507346364 0.3034067617173673 -0.1742996097154735
-0.9583437584178938 0.2523225395552859 -0.1338304028755651
-0.9754209424986282 0.1948811342591167 -0.102836415947695
-0.9871333508651635 0.1374852077950504 -0.08164291302535261
-0.994392409999778 0.08081038662940404 -0.06821595376185048
-0.9978199753114763 0.02419871258352574 -0.06139803888320851
-0.9976144008148241 -0.03261708087535396 -0.06084104964618557
-0.9937500024018235 -0.08962321533959053 -0.06654781738395457
-0.9859753546192264 -0.1470762484763184 -0.07887443957089099
-0.9736157344243767 -0.20560121094692 -0.09899769562187238
-0.9557226232612817 -0.2644855568486212 -0.1290025488315955
-0.9331671711896483 -0.3173992321348527 -0.1686913099543509
-0.9065591190740134 -0.3621401079720384 -0.2168066092667573
-0.8748365683724824 -0.3999461431135655 -0.273320436935919
-0.8342781065103732 -0.4332152280114939 -0.3410346129301465
-0.7918499321354027 -0.4455815984462527 -0.4176490441785303
-0.7382995062618986 -0.4474694121519934 -0.5046632186337592
0 0 0
0 0 0
0 0 0
0 0 0
0 0 0
0 0 0
0 0 0
0 0 0
0 0 0
0 0 0
0 0 0
0 0 0
0 0 0
0 0 0
0 0 0
0 0 0
-0.6434631976894665 0.5059874211544437 -0.5743969384082069
-0.6955479732611213 0.5429682696163846 -0.4705299938177532
-0.7768501555326052 0.5094606267592177 -0.3700725680607407
-0.8272500156906484 0.4842020836302331 -0.2849662326451364
-0.8645982169813983 0.4556207499299222 -0.2118481895742364
-0.8960540478086549 0.4182479832292758 -0.1488481371410721
-0.9220769494535122 0.3748836933021212 -0.0961057531194978
-0.9439820807685743 0.325852353688779 -0.05213515880205009
-0.9623766025589978 0.2712280715874658 -0.01632813614423053
-0.9771368651563284 0.2123166929394619 0.01118787967903984
-0.9879551245719495 0.151681978439138 0.03061452676119517
-0.9949656680783423 0.09050225558307748 0.04304254964326131
-0.9983586230211872 0.02903860065962712 0.04936415208396691
-0.9982161044071691 -0.03265232224719344 0.04998434508964113
-0.9945119414501287 -0.09450136304058956 0.04489421673852893
-0.9871150177252364 -0.1564300713886714 0.03366859882205499
-0.9757966347105286 -0.2181378496697759 0.01538850964364757
-0.9603984367329047 -0.2784102548727233 -0.01107125569651721
-0.9412094188100881 -0.3346858653917785 -0.04593692904550464
-0.9183251946955913 -0.3856879391086105 -0.08901488871788095
-0.8910893918311934 -0.4314200114538361 -0.1408420018427914
-0.8581166125384173 -0.4716525357164243 -0.2029279794357055
-0.8188686016291365 -0.5036423303183768 -0.2753154851754924
-0.7661824753498552 -0.5325467603821706 -0.359664235743871
-0.6822691043405674 -0.569312549779754 -0.4586851751752987
-0.6274273226635284 -0.5368404879823198 -0.5640365637422637
0 0 0
0 0 0
0 0 0
0 0 0
0 0 0
0 0 0
0 0 0
0 0 0
0 0 0
0 0 0
0 0 0
0 0 0
0 0 0
-0.6223102417240893 0.5506955767519351 -0.5562951957289927
-0.6862248881724148 0.5759722334215653 -0.4442424891656919
-0.7382582350801734 0.5829464617111445 -0.3393349394252883
-0.7908176522106726 0.561716673818259 -0.2430675200567748
-0.8320564116083546 0.5305850640592661 -0.161745533782705
-0.8649242579365238 0.493108950849092 -0.09353924644479694
-0.8925517544601521 0.4494891621049481 -0.03620578351997301
-0.9161434179482905 0.4006847259500357 0.01153204840296319
-0.9364158091739672 0.3471700255246602 0.05097455940241599
-0.9536451223183047 0.2892898388191447 0.08289975774692138
-0.9677291609129106 0.227857460435721 0.1076162108726055
-0.9784206530771778 0.1641670407152632 0.1254679575621649
-0.9855770507755127 0.0992019927965599 0.1371015740603763
-0.9891386760072762 0.03352194556937677 0.143111700401524
-0.9890702981711522 -0.03252570528482177 0.1438124604175599
-0.985341585941707 -0.09863372181465582 0.1391881745511094
-0.9779324816120082 -0.1644214752314669 0.1288939094406195
-0.9668616514791254 -0.2292724061055753 0.1123063252787557
-0.9522471676026235 -0.2921428254739192 0.08875754230990941
-0.9343208729686554 -0.3516984808504646 0.05790237389403261
-0.9131673899116487 -0.4071195034542296 0.01946863911853292
-0.8884811749286839 -0.4581012646753276 -0.02728430135096056
-0.8594957687150392 -0.5042494055722267 -0.08366337634233449
-0.8249298047048327 -0.5446934686129777 -0.1509961673686089
-0.7815632494713826 -0.57927450734379 -0.231516591667513
-0.7263672105128227 -0.6044775613205888 -0.3271048048435448
-0.6712730793338754 -0.6022120015658453 -0.4321263219611534
-0.6048263063078961 -0.5811389025320599 -0.5444838979820976
0 0 0
0 0 0
0 0 0
0 0 0
0 0 0
0 0 0
0 0 0
0 0 0
0 0 0
0 0 0
0 0 0
-0.5798370306240346 0.594507829429104 -0.5570901710357106
-0.6491872792795357 0.6239126017912756 -0.4350734900538927
-0.7030941518481966 0.6338772289822016 -0.3222704954145044
-0.7475438550482568 0.6263778401422633 -0.2209728176910074
-0.7875073424186403 0.602049497599192 -0.1317899392111949
-0.8217287521649399 0.5670751523039502 -0.05645909585621762
-0.8510573578392263 0.5250342267282209 0.00635880740497488
-0.8767200705182163 0.4774041318710466 0.05871296980212605
-0.8994043054373815 0.424994564927525 0.1022326520382046
-0.9194052320828628 0.3682389631248064 0.1381813491590803
-0.9367198338490084 0.307484521557055 0.1673595586655105
-0.9511226892413971 0.2432932999293157 0.1901946377259782
-0.9622887265131596 0.1764851573971959 0.2070106181918402
-0.9699249604967668 0.1078770281920702 0.2181928454230153
-0.9738209425077009 0.03815011440344829 0.2240922593585426
-0.973852157009661 -0.03211785491075719 0.2249009108108756
-0.9699785388549811 -0.1023678552563709 0.2205956852954428
-0.962251519708801 -0.1719764099600859 0.2109410515649878
-0.9508270940269379 -0.2401822875912996 0.1955512873690636
-0.9359674398518038 -0.3060746346887916 0.174020888221449
-0.9179872848698288 -0.3687486301858586 0.146026684388066
-0.8971138948138366 -0.4275852821077913 0.1111642310131638
-0.8733534287914028 -0.4822235303878937 0.06866043371939644
-0.8464014796715569 -0.5322654681509453 0.01726286835532688
-0.8155326771372273 -0.5769848116265948 -0.04466519532711179
-0.7794394560700877 -0.6150357296319595 -0.1191855091747658
-0.7371435469134185 -0.6430252816974873 -0.2076966016615845
-0.6897886211159376 -0.6549442839006628 -0.308609207841925
-0.632548292618305 -0.6499552528324303 -0.4212372571618022
-0.5602676076266772 -0.6251484076007578 -0.5434056277942985
0 0 0
0 0 0
0 0 0
0 0 0
0 0 0
0 0 0
0 0 0
0 0 0
0 0 0
-0.5370609836841531 0.6162620446480572 -0.5760091944842591
-0.6029018305374269 0.6618516600976544 -0.4454904743769479
-0.6561767046336956 0.6820145598923636 -0.3229369480113551
-0.6998865176667314 0.6815889608295488 -0.2135306789752505
-0.7370952018562087 0.6653666731497933 -0.1182279732640729
-0.7703539197050626 0.6365795840462426 -0.03634929945072093
-0.8003397019285906 0.5986527777693544 0.03272939330158073
-0.8275692639768049 0.5540116671544132 0.09055487826548253
-0.8524768788628311 0.5039606915411731 0.1389488840747847
-0.8752481201232739 0.449156033284549 0.1794424308372008
-0.8958285379169207 0.389941814952149 0.2131586536020887
-0.913970961103478 0.3266073045549709 0.240800230213595
-0.9292909823209287 0.259585643676177 0.2627423905163149
-0.9413449342393384 0.1895133069512265 0.2792031899358338
-0.949718076185319 0.117143357368809 0.2903670256610064
-0.9540877662655969 0.04325646024950697 0.2963872684664541
-0.9542564273923522 -0.03136481542925272 0.2973397368894257
-0.9501682824473157 -0.1059195735873792 0.2931915397179554
-0.9419186861719439 -0.1795643571834463 0.2838059729276569
-0.9297535823749398 -0.2514095993297931 0.2689823217718931
-0.9140457149690568 -0.3205675109269237 0.2485093597529509
-0.8952321858338734 -0.3862663178358963 0.2221658505544965
-0.8737193463097588 -0.4479601934532216 0.1895947493086228
-0.8497921516927862 -0.5052886545638463 0.150122198526407
-0.8235404265333143 -0.5578920758895511 0.1026528008627798
-0.7947879095347173 -0.6051659847436242 0.04567614001547279
-0.7630559879024786 -0.6459364583895765 -0.02261970488981645
-0.7277075141466136 -0.6779879483625286 -0.1037984379927004
-0.687884703408027 -0.6981397871914395 -0.1985333028928438
-0.6408969423449437 -0.7033168265000023 -0.3075655228644247
-0.583823108872226 -0.688560578517559 -0.4301568403016887
-0.5146950984466215 -0.648006064786165 -0.5614063551790013
0 0 0
0 0 0
0 0 0
0 0 0
0 0 0
0 0 0
0 0 0
0 0 0
-0.5714766299595646 0.6718779513385635 -0.4711629016753688
-0.6070746839143591 0.717828517146446 -0.3408556118382309
-0.6461394920891051 0.7301488065028346 -0.2222306844819564
-0.6815792370501563 0.7220189659395386 -0.1189048209524126
-0.7134447047789336 0.7000486997018424 -0.03047082651749741
-0.7428945065844814 0.6679129934454211 0.04472119490102998
-0.7706095201277262 0.6280289478427131 0.1083540869560975
-0.796899617244612 0.5819369874768754 0.1621738038085344
-0.8218323746581486 0.5304790586361607 0.2078064395350653
-0.8452704311922099 0.4740587531212375 0.2465485687268784
-0.8669025905265251 0.4128824127223383 0.2792991439352797
-0.8862796073392653 0.3471584537686145 0.3065770141278399
-0.902858384106667 0.2772454650124668 0.3286056761200552
-0.9160627997173574 0.2037173014068439 0.3454391525023029
-0.9253573271668762 0.1273406221341057 0.3570688771274713
-0.9303150433073332 0.04901852111644345 0.3634709132566605
-0.930668045467118 -0.03025725400505857 0.3646114201811118
-0.926338613536228 -0.1094388424937752 0.3604440495075495
-0.9174520738767539 -0.1874542992377543 0.3509167676765034
-0.9043280620796347 -0.2632554645267725 0.3359870779242632
-0.887444423704592 -0.3358919922254532 0.3156247208227516
-0.8673725758230469 -0.4045981497702507 0.2897674100249745
-0.8446970373497673 -0.4688436557119269 0.2582102662389728
-0.8199389697553298 -0.5282919992968749 0.2204714252584189
-0.7934895062692174 -0.5826705430943879 0.1756970166244259
-0.765545161884979 -0.6315862505135149 0.1226352856105447
-0.7360436925161147 -0.6742967331977505 0.05969588181846516
-0.704595933437275 -0.7094532787253582 -0.01485314409454932
-0.6703467478250678 -0.7349040647644284 -0.1027192935775725
-0.6319104460664969 -0.7472573982244595 -0.2056588654808047
-0.5891347829740972 -0.7400508190038415 -0.3244148467345573
-0.5497661978682025 -0.6996560351698728 -0.45633163393733
0 0 0
0 0 0
0 0 0
0 0 0
0 0 0
0 0 0
0 0 0
-0.4504845688148718 0.7278234860822791 -0.5170460582643648
-0.5362946344749601 0.757177029913355 -0.3729222578567258
-0.5836194828566371 0.7740209559208776 -0.2455195695366901
-0.6199218565115782 0.7731754792985025 -0.133778062591623
-0.6512973913833003 0.7578829913344007 -0.03775022414937575
-0.6800579382181006 0.7318376231575975 0.04398742999520931
-0.7074527372202986 0.6975799356735038 0.1135467214201132
-0.7340923592746021 0.6566508040844506 0.1729685796608505
-0.7601562478523555 0.6098968319682323 0.2240275277865241
-0.7855336440601559 0.5576998396318147 0.2681562658679073
-0.8099041117668505 0.5001781053309818 0.3063938522403112
-0.8327848986822081 0.4373665121943607 0.3393815648172478
-0.8535684209896259 0.3693719895593786 0.3674034349570265
-0.8715649777753228 0.2964951699808758 0.3904678010969813
-0.88606130952351 0.2192981822715852 0.4084160415775322
-0.8963941007937346 0.1386108193043023 0.4210280950649034
-0.9020269096370592 0.05549119910804879 0.4280983311251829
-0.9026159782546677 -0.02883582125694712 0.4294797913893107
-0.8980552025760151 -0.1130516280880077 0.4251072600095212
-0.888493686944557 -0.1958262538807078 0.4150072849369217
-0.874321910472308 -0.2759109010488502 0.3992923384570065
-0.8561256587075678 -0.3522329844109844 0.3781279957837867
-0.8346145336760186 -0.4239739686660794 0.3516598556422039
-0.8105396628848101 -0.4905988299228835 0.3199034900854874
-0.7846155887661317 -0.5518162936867248 0.2826254692822686
-0.7574501367159949 -0.6074773026658589 0.2392501141791417
-0.7294745595391032 -0.6574333741583813 0.1888073767837381
-0.7008605320511448 -0.7013656332354942 0.1299259909685496
-0.671405085062618 -0.7385863062291526 0.06087265398218099
-0.6403644950040829 -0.7678005110858552 -0.02038844561178411
-0.6062499701783467 -0.7867649522937852 -0.1160253571462339
-0.5664850049736165 -0.7920178631156239 -0.227601501853133
-0.5149827248204768 -0.7801554522455889 -0.3551763836011016
-0.4254295546667362 -0.7550491903780527 -0.4989092243339551
0 0 0
0 0 0
0 0 0
0 0 0
0 0 0
-0.3751957790765281 0.7238198299023579 -0.5790621565974396
-0.450354423504246 0.7823026865756636 -0.430329408484543
-0.5090595992974616 0.810848036633037 -0.2887625076969935
-0.55072688772967 0.8182111373984539 -0.1650164530242943
-0.5835858157015191 0.8098902772152166 -0.0592058661304055
-0.6122783357872991 0.7900513381175512 0.03056342036162938
-0.6391506822005439 0.7616255214556843 0.1068315052310673
-0.6653903885302981 0.7263717740838674 0.1721617746939004
-0.6915233839737572 0.6851746458710637 0.2287599485769853
-0.7176498231330513 0.6383532280702485 0.2783592778575792
-0.7435747723554266 0.5858958040771456 0.3222152458859915
-0.7688832679153664 0.5276413392232747 0.3611275916659586
-0.7929860756068776 0.4634329001289498 0.3954782307177903
-0.8151564373286191 0.3932539423760374 0.4252896889032427
-0.834574687117125 0.3173421463191418 0.4503099530244835
-0.8503909070910768 0.236265656370712 0.4701210958429026
-0.8618069603134404 0.1509468312213089 0.4842559419352054
-0.8681675318708871 0.06263204256971329 0.4923031219165254
-0.8690441969095152 -0.02718534604651181 0.4939869844218838
-0.8642956256797405 -0.1168766380208044 0.4892166421084006
-0.8540916387045689 -0.2048113773072245 0.4781001698603142
-0.8388948556438726 -0.2894952413806617 0.4609207376460707
-0.8194030546971421 -0.3696914179879449 0.4380717856916311
-0.7964642424837327 -0.4445011106640281 0.4099554525351002
-0.7709824886950932 -0.5133846612118449 0.3768583178834173
-0.7438295298168703 -0.5761185282195751 0.3388289716280528
-0.7157671916039128 -0.6327018602264251 0.2955768656195342
-0.6873741985136734 -0.6832307587370611 0.246398947914281
-0.658963440734874 -0.7277488407699759 0.1901284001216332
-0.6304705370158005 -0.7660657295041573 0.1251007595271534
-0.6012909594482669 -0.7975172790878392 0.04914643061415076
-0.5700253504382629 -0.8206377113121083 -0.04030938637786068
-0.5340059923449195 -0.8328014275933013 -0.1458745431467608
-0.4882916930799405 -0.8300147906544232 -0.2695304616625336
-0.4247152340361739 -0.8065845766189623 -0.4111426647016901
-0.3449634130935881 -0.7530976248980298 -0.5602180031021567
0 0 0
0 0 0
0 0 0
0 0 0
-0.402991037279984 0.7644206220746406 -0.5032487818356061
-0.4396648378409598 0.8255883846888069 -0.3536928744450598
-0.4787017643441328 0.8509197399419298 -0.2162873481990387
-0.5119287734996647 0.8534719455991958 -0.09754265189265457
-0.5405629756419397 0.8412987188151478 0.002852207061520999
-0.5667807670516046 0.8191993673691577 0.08758971744654526
-0.5921159861644962 0.7898489775570636 0.1598037908827768
-0.6174401405767306 0.7545445338879069 0.2223290785850296
-0.6431402356724972 0.7137211620239664 0.2774396153008489
-0.6692525272754553 0.6673074192214713 0.3268055430793589
-0.6955434372499169 0.6149673218091103 0.3715299718804667
-0.721556757627574 0.556277451464302 0.4122029142477801
-0.7466439031763845 0.4908757654650192 0.4489586447866492
-0.7699939073555766 0.4185984377125161 0.4815441107312308
-0.7906773286198067 0.3396034683737202 0.5094102926671048
-0.807714766260242 0.2544642244749072 0.5318315662195563
-0.8201708937153679 0.1642122819660194 0.5480456473266133
-0.8272643660890563 0.07031302040778777 0.5573955038932458
-0.8284735248710517 -0.02542914112659535 0.5594506031539318
-0.8236150999197734 -0.1210259637776834 0.5540856281079881
-0.8128762974838226 -0.2144956279341581 0.541501385580981
-0.7967920605265119 -0.3040538645260633 0.5221816348251641
-0.7761727893217191 -0.3882686651046335 0.4967929597069664
-0.7520006807778297 -0.4661507860299394 0.4660455136500616
-0.7253174207951604 -0.5371675700436368 0.4305411023171541
-0.697122031208688 -0.6011878673732978 0.3906328477312401
-0.6682863046519113 -0.6583781964339056 0.3463113706985807
-0.6394840734988477 -0.7090712519442114 0.2971162725392003
-0.6111221339344686 -0.7536146349000724 0.2420634616785675
-0.5832566568063375 -0.792188680586778 0.1795794159731935
-0.555477204495097 -0.8245596830665125 0.1074541965097871
-0.526743413119025 -0.8497165610172533 0.02287231227339978
-0.4951993299496947 -0.8653297958335171 -0.07734318366925567
-0.4582537475559364 -0.8669371445742411 -0.1960191067431969
-0.4144303229241366 -0.8466620150760815 -0.3337827731748664
-0.3726454762975526 -0.7911103640098925 -0.4850564306873013
0 0 0
0 0 0
0 0 0
-0.2864485000455453 0.7541556202754562 -0.5909285550966366
-0.3658449914737489 0.8234645008828324 -0.4336630696743262
-0.4079219877548056 0.8671042272325523 -0.2858844364802073
-0.4400262940167727 0.8846847954914387 -0.1539794570718298
-0.467389306354305 0.8831039987385547 -0.04092143347459184
-0.4922186273485663 0.8687672950021048 0.05444455919390065
-0.51599977044363 0.845859221985238 0.1351532962404099
-0.5397157520323932 0.8166244230919585 0.2045274030975641
-0.5639387650154994 0.7819835197286227 0.2654709855815279
-0.588917871677727 0.7420376298391254 0.3202434953614342
-0.6146388112157684 0.6964156160147328 0.3704381480329567
-0.6408560653791915 0.6445088342404276 0.4170274164281598
-0.6671070900579115 0.5856465475324908 0.4604196474497357
-0.6927215269727319 0.5192498515379371 0.5005162112723188
-0.7168383507963838 0.4449832131108302 0.5367799538703745
-0.7384452639272383 0.3629011749297335 0.5683320591151352
-0.7564504152184183 0.2735711246484125 0.5940888898763252
-0.7697890835689035 0.1781409372707989 0.6129360270749536
-0.7775539937020686 0.07832271630167514 0.6239193369251271
-0.779125954232438 -0.02372330759083408 0.6264183523160403
-0.774273617166698 -0.1255942999631895 0.6202632002435363
-0.7631958765064434 -0.2249032032505466 0.6057644783669673
-0.7464944499691333 -0.3195335270567838 0.5836474631589967
-0.7250851085451373 -0.4078361596326065 0.5549065256979889
-0.7000716635293535 -0.4887321728919807 0.5206155290649003
-0.6726129831573975 -0.5617156832587837 0.4817336048784884
-0.6438065573422804 -0.6267749533372889 0.4389376659528318
-0.6145996691652907 -0.6842630829895839 0.3924936686362012
-0.5857257250569804 -0.7347450950239801 0.3421622719480866
-0.5576548937948228 -0.7788332265944233 0.2871233612564538
-0.5305437127408372 -0.8169999212952846 0.2259081615937465
-0.5041682352679265 -0.8493352914593701 0.1563456210721964
-0.4778294934044056 -0.8751956417487629 0.0755748893274729
-0.4502411256740453 -0.892688696179187 -0.01974387159781793
-0.4194561931418276 -0.8980171925497781 -0.1327464648116088
-0.3827980067120296 -0.8850724594960369 -0.2647875138652358
-0.335042044949443 -0.8468359087611718 -0.4130566205119283
-0.250433559842463 -0.7825010761580293 -0.5700658715588549
0 0 0
0 0 0
-0.3159408198478901 0.7844260583898867 -0.5337201113624525
-0.3442210900330731 0.8606893613785275 -0.3751341951705617
-0.3715575817941887 0.8997032359020054 -0.2290830651067742
-0.3957805424381212 0.912683459977636 -0.1018168164432411
-0.4179796166938125 0.9084355423944021 0.006156731525869739
-0.4392796560094076 0.8930749876313897 0.09721342645668303
-0.4605371383921341 0.8702605642823701 0.174791574214876
-0.4823352852823614 0.8418095812913607 0.2423000235609692
-0.5050224728087677 0.80831446933827 0.3026219103378138
-0.5287449355290426 0.7696065181548022 0.3579589367036813
-0.5534604134660128 0.7250695977794526 0.4098239245114567
-0.5789343042093295 0.6738562262200813 0.459078269790773
-0.6047267644717063 0.6150579351589677 0.5059735929172274
-0.6301805433928075 0.5478681884891387 0.5501935393757135
-0.6544229545256964 0.4717557287115663 0.5909121161540661
-0.6763959168578865 0.3866455549960732 0.6268921585566032
-0.6949271077000152 0.2930813192170413 0.6566427151120232
-0.7088456246635665 0.1923274882253842 0.6786368820424014
-0.717131787780571 0.08636496547602082 0.6915656814019672
-0.7190726265683312 -0.02224760261276643 0.6945787226068082
-0.714384733812075 -0.1306393964055794 0.6874502165270121
-0.7032683383272564 -0.235966767123322 0.6706215990555231
-0.6863765412366493 -0.3357453681890101 0.6451064186470632
-0.66470972532396 -0.4280959814242091 0.6122865438242036
-0.6394672291335239 -0.5118600684272293 0.5736557619461038
-0.6118939791178595 -0.5865838372728533 0.5305705986667246
-0.5831520218203003 -0.6524041804023601 0.4840480398064018
-0.5542301453202053 -0.7098810067326402 0.4346238630109909
-0.5258899025872312 -0.7598134892596439 0.3822607381040808
-0.4986357837321489 -0.8030567486038557 0.3262854788427282
-0.472693666797555 -0.8403317039324069 0.2653362484387295
-0.4479813234411122 -0.8719963986681994 0.1973195746945541
-0.4240595571139958 -0.897727325066525 0.1194116487164588
-0.4000665822230127 -0.9160520666832899 0.02820178919271573
-0.3746761155034055 -0.9237121694974483 -0.07983505742213319
-0.3462029741249543 -0.9149736936691447 -0.2072839612716758
-0.3132883221417114 -0.8811999118877032 -0.3540298610269123
-0.2791732708020935 -0.8106864127692874 -0.5146356235443915
0 0 0
0 0 0
-0.2980490566919831 0.8249590830202577 -0.4802179413010242
-0.3106429975207298 0.8940906135984361 -0.3226498144529252
-0.3281446503930173 0.9272050572348847 -0.1805875694960701
-0.3461849976122841 0.9363517206993316 -0.05832154466046607
-0.3640831770185007 0.9302789990275124 0.04499360155048896
-0.3821266941581087 0.914572235862163 0.1324266400762275
-0.4007266990054985 0.8923600231052033 0.2076335759645747
-0.4202121620586681 0.8650613950698187 0.2740264980213369
-0.440795777521147 0.8329811520829602 0.3344270963813651
-0.4625691476731649 0.7957224983929954 0.3909673760969457
-0.4854901628518187 0.7524596134349396 0.4450885663814058
-0.5093587402404909 0.7021289677360257 0.4975626457106305
-0.5337854354136766 0.6435920909341774 0.5485091880973413
-0.5581626902314963 0.5758069321718043 0.5974117408424719
-0.5816511221223384 0.4980271495448349 0.6431570029550098
-0.6031975945693251 0.410023721414753 0.6841295270509644
-0.621599793235536 0.3122970611735366 0.7183900351702484
-0.6356250970082539 0.206222290363876 0.7439442875715389
-0.6441735947248071 0.09406340521963413 0.7590734191485078
-0.6464551799195217 -0.02118959672664862 0.7626576567148463
-0.6421338344078498 -0.1361543513204476 0.7544044878744953
-0.631394917883318 -0.2474910711815158 0.734907223638837
-0.6149132181915623 -0.3523239105283555 0.7055137108258797
-0.5937344205169606 -0.4485422162296669 0.6680488890441828
-0.5691081417863184 -0.5349255853098194 0.624476213424875
-0.5423187982932881 -0.6111009576037033 0.5765812524124941
-0.5145488023642524 -0.6773820014025821 0.5257310663840834
-0.4867896691053918 -0.7345541850017926 0.4727218710284247
-0.4597976888824788 -0.7836543330588291 0.4176984218026834
-0.4340803317886818 -0.8257677658187269 0.3601136799525608
-0.4098950254813872 -0.8618370891608375 0.2987020251561531
-0.3872437211292589 -0.8924522351331173 0.2314547654550824
-0.365851963790038 -0.9175702642720659 0.1556186065824491
-0.3451387794710583 -0.9361006136647015 0.06778542617551891
-0.3242345505304954 -0.9452996598231402 -0.03578420574139272
-0.3022556506900023 -0.9399779673631675 -0.1583759530287673
-0.2794775693500819 -0.9116587553999258 -0.3012815990611237
-0.2611405005324651 -0.8480353369353812 -0.4611308993014319
0 0 0
0 0 0
-0.2494207764143798 0.8656663835563239 -0.434063346383178
-0.2616691811827273 0.9242503002422081 -0.2780119100350712
-0.2764429000445897 0.9507089014240727 -0.1404703092043609
-0.2912268069351098 0.9563781892528187 -0.0229718532965696
-0.3059840743468559 0.9489714979146477 0.07633375656763301
-0.3210875680218827 0.9332853293694132 0.1608765602740745
-0.3368823799150306 0.9119063210938466 0.234386696832117
-0.3536218876308671 0.8858945594015204 0.3002372232271803
-0.3714736422183141 0.8553082663313294 0.3611856900298726
-0.390521231766927 0.8195576790821643 0.419307021401619
-0.4107493550929302 0.7776354164262141 0.4759917293508047
-0.4320135258693873 0.7282825257397533 0.5319481893643639
-0.4540010202957694 0.6701414808440848 0.5871911692306833
-0.4761913961692124 0.601935281048298 0.6410270443933875
-0.4978303364970449 0.5226926446005001 0.692067449995861
-0.5179335601134561 0.4320142811972109 0.7383146268020547
-0.5353396613899183 0.3303401611955552 0.7773588777676765
-0.5488223827400464 0.2191460377686789 0.8067025513371245
-0.5572568226846657 0.1009810715131895 0.8241769571927126
-0.5598083230819609 -0.02071791339929834 0.8283630903610694
-0.5560933969103374 -0.142035397573908 0.8188932041168393
-0.5462594683156646 -0.2591179608181418 0.7965290174607165
-0.5309568573442474 -0.3686948470062771 0.7629868448604717
-0.5112149700752345 -0.4684363291423833 0.7205738407065477
-0.4882665229776794 -0.5570843024171539 0.671753587664167
-0.4633707359139302 -0.6343734260165309 0.6187551353020282
-0.4376745197667837 -0.7008161480348631 0.5632918794022252
-0.4121271858664702 -0.7574345418787659 0.5064030977775384
-0.3874446329177184 -0.8055016223848851 0.4483902237544568
-0.3641062166283928 -0.8463194705197447 0.3888058857987319
-0.3423646703060692 -0.8810290463089018 0.3264571213593643
-0.3222503312464851 -0.9104198251366864 0.2594040593545425
-0.3035563876113725 -0.9346882490289343 0.1849632305826167
-0.2858023172975172 -0.9530807828796868 0.09977001920823843
-0.2682053434211467 -0.9633617666113166 1.979563558184252e-05
-0.2497900394385347 -0.9610941809838849 -0.1179106079884677
-0.2301040209774882 -0.9388226762157673 -0.2562501163961795
-0.2123037868449106 -0.8850815777405933 -0.4141952472391881
0 0 0
-0.08134253462897414 0.8221900468505133 -0.563371031310702
-0.1684082533018113 0.901952797092946 -0.3976428196711759
-0.20082547775115 0.9487308897391989 -0.2440877431185138
-0.2186652410439164 0.9695824422535552 -0.1099790890707721
-0.2321708137844662 0.9726666232300339 0.004043919007731316
-0.2444721329633396 0.9644383223941084 0.1004594370977279
-0.2567347332209333 0.9490013424626879 0.1829855971435774
-0.2694862735024063 0.9285095097922653 0.2554353903027394
-0.2830122142265567 0.9037424145749011 0.3211755512128974