# OOMMF: rectangular mesh v1.0
# Segment count: 1
# Begin: Segment
# Begin: Header
# Title: 
# Desc: time = 4.999999999999999e-10
# Desc: stepsize = 9.06066923395202e-14
# Desc: step = 3198
# meshunit: m
# valueunit: (none)
# valuemultiplier: 384000.0000000001
# xmin: 0
# ymin: 0
# zmin: 0
# xmax: 9.357999999999999e-08
# ymax: 9.357999999999999e-08
# zmax: 2.3395e-08
# ValueRangeMaxMag: 1
# ValueRangeMinMag: 0
# meshtype: rectangular
# xbase: 1.16975e-09
# ybase: 1.16975e-09
# zbase: 1.16975e-09
# xstepsize: 2.3395e-09
# ystepsize: 2.3395e-09
# zstepsize: 2.3395e-09
# xnodes: 40
# ynodes: 40
# znodes: 10
# End: Header
# Begin: Data Text
0 0 0
0 0 0
0 0 0
0 0 0
0 0 0
0 0 0
0 0 0
0 0 0
0 0 0
0 0 0
0 0 0
0 0 0
0 0 0
0 0 0
0 0 0
0 0 0
-0.8180185804923054 -0.0006851872627283231 -0.5751913877030566
-0.8271279465257469 0.02180271812354282 -0.5615905995994998
-0.836803189001742 0.005980556305611843 -0.5474711461098103
-0.8414058191397213 -0.0257680751527336 -0.5397890827172566
-0.8391714284522053 -0.06205926783484438 -0.5403146869605595
-0.8302212942937399 -0.09406785388405278 -0.5494395702594372
-0.816654610064992 -0.1102511374864965 -0.5664979563445299
-0.8048485947433052 -0.08739765546578231 -0.5870097012476119
0 0 0
0 0 0
0 0 0
0 0 0
0 0 0
0 0 0
0 0 0
0 0 0
0 0 0
0 0 0
0 0 0
0 0 0
0 0 0
0 0 0
0 0 0
0 0 0
0 0 0
0 0 0
0 0 0
0 0 0
0 0 0
0 0 0
0 0 0
0 0 0
0 0 0
0 0 0
0 0 0
0 0 0
-0.7718411215521495 0.2021532742880887 -0.6028228071131051
-0.7993703605536912 0.2353766172093362 -0.5528154074728296
-0.8359620743363811 0.2210249462134108 -0.5023100471049456
-0.8721127399906579 0.1750972819137851 -0.4569029553552821
-0.9033073539226901 0.09478683683359106 -0.4183912999959122
-0.9157175141919069 0.05671359620608397 -0.3978002038807514
-0.9231893825154359 0.02054115830432642 -0.3837960719265947
-0.9261527164207054 -0.019523263008388 -0.3766430512674473
-0.9240795840966416 -0.06137269158211291 -0.3772403941570204
-0.9170169897461156 -0.1015601560707666 -0.3857011475428267
-0.9055277842416277 -0.1379074154755426 -0.4012492700595272
-0.888851768613219 -0.1759709713397893 -0.4230564391176225
-0.8512167408912026 -0.2554629548252162 -0.4584416415843222
-0.8093210796728778 -0.3020973153140533 -0.5037227432597899
-0.7678306137147393 -0.3175132907594542 -0.5564363924417133
-0.7369774188739707 -0.2849008797364329 -0.6129402685378615
0 0 0
0 0 0
0 0 0
0 0 0
0 0 0
0 0 0
0 0 0
0 0 0
0 0 0
0 0 0
0 0 0
0 0 0
0 0 0
0 0 0
0 0 0
0 0 0
0 0 0
0 0 0
0 0 0
0 0 0
0 0 0
0 0 0
-0.7519280193888428 0.2933318546747965 -0.5903902748953571
-0.7893931902403227 0.3248725245189981 -0.5208802492078749
-0.8441372268587268 0.2896064156880819 -0.4511767571845425
-0.8778391330725649 0.2708768121576495 -0.3949989988363471
-0.907595671497702 0.2400226020498824 -0.3444695161895151
-0.9338445556635048 0.1932982615168677 -0.3009487131592146
-0.954244775928425 0.1340923096844054 -0.2672754386336517
-0.965694220291634 0.08287361871502831 -0.2461028976188796
-0.9718712111112674 0.03471006895766122 -0.232941108707914
-0.9738868442280869 -0.01352533350692521 -0.2266307128192988
-0.9718700813067638 -0.06208341423251487 -0.2271875761084165
-0.9658153466583288 -0.1102686410931072 -0.2346093411412496
-0.9555259560812703 -0.158319492741119 -0.2488073260038144
-0.9396426506943987 -0.2093330852639424 -0.2706498631255573
-0.9140729064474385 -0.2682715867494295 -0.3041398978129559
-0.8828106966753142 -0.3151883311564043 -0.3482837775987945
-0.8483946051436225 -0.3464635896973396 -0.4002368985703709
-0.8102370034055839 -0.365584106294039 -0.4581094405680021
-0.7499669279655996 -0.4004696124783508 -0.5264728829097277
-0.708653614332452 -0.3695756701449089 -0.6010190337505902
0 0 0
0 0 0
0 0 0
0 0 0
0 0 0
0 0 0
0 0 0
0 0 0
0 0 0
0 0 0
0 0 0
0 0 0
0 0 0
0 0 0
0 0 0
0 0 0
0 0 0
0 0 0
0 0 0
-0.761732725688245 0.3740890873381127 -0.5289807268229099
-0.8126329112375822 0.375955968668147 -0.445291883146691
-0.8523163072624445 0.3682612463523554 -0.3714035094200371
-0.8900933930452384 0.338803437389154 -0.30487043554682
-0.9192556940615735 0.3044526468458477 -0.2495547129667793
-0.9433652380158055 0.2627849538990312 -0.2024996190309154
-0.9633592997619481 0.2125820118163561 -0.1635473870603839
-0.97861482125692 0.1561369665367055 -0.1339189280759117
-0.9884169691039952 0.1000682598492189 -0.1140974958446514
-0.9937598341358804 0.0451118148959985 -0.1020113533633191
-0.9952949324702203 -0.009410939889228922 -0.09643356059743906
-0.9932396957004304 -0.06380765759111914 -0.09697159232295993
-0.9875810305601995 -0.1181101239967579 -0.1036036036396598
-0.9780529252637929 -0.1726338811642558 -0.1166619837697877
-0.9639134295443147 -0.2280844195954807 -0.1372894674835236
-0.9441248682136061 -0.2838193748497099 -0.1675553510949745
-0.9196888500887115 -0.3334170395827122 -0.2073776669229435
-0.8912773127554774 -0.3746142961851009 -0.2555168895809349
-0.8577605217468842 -0.4086579514094042 -0.3118422134387541
-0.8152029963380309 -0.4380202115502513 -0.3789226425472204
-0.7709532174304632 -0.446049723116194 -0.45461058175276
-0.7154619163176947 -0.4434182306936197 -0.5399023235619116
0 0 0
0 0 0
0 0 0
0 0 0
0 0 0
0 0 0
0 0 0
0 0 0
0 0 0
0 0 0
0 0 0
0 0 0
0 0 0
0 0 0
0 0 0
0 0 0
-0.6626890971719143 0.4626437873304677 -0.5889005744045368
-0.7140675296218562 0.5009477232037086 -0.4890387937135043
-0.7939840512196972 0.4671535616574469 -0.3890461106855055
-0.8434271501621114 0.4418099502011059 -0.3056707546899359
-0.8799015058983232 0.4132355628106402 -0.2345414879001922
-0.9103025477607495 0.3758615883053453 -0.1734281925664651
-0.9350784947866776 0.3325915316352852 -0.1225197195229241
-0.9555110153111579 0.283811485486999 -0.0803102753369852
-0.9721799655281194 0.2296375025372821 -0.04618151203873027
-0.9849825309011446 0.1714585090402135 -0.02028283750568544
-0.9937098094307524 0.1119593954968305 -0.002430720280376443
-0.9985911820921154 0.05237706240403334 0.008502610293021325
-0.9998846333467881 -0.007033669470134106 0.01346281882605345
-0.9977190343559993 -0.06625989682649418 0.01289785083934555
-0.9920957477483719 -0.1252974076612941 0.006825462105788939
-0.9828852972577882 -0.1841461358164044 -0.005166536398321204
-0.9698322723700613 -0.2425890267853442 -0.02399849063715939
-0.95274940133194 -0.2994761138824167 -0.05081963671175892
-0.9319526954049295 -0.3522559041390632 -0.08590664425210003
-0.9075340912245526 -0.3996487596025295 -0.1290842446365326
-0.8787638904741042 -0.4416618062446785 -0.1808559473821752
-0.8441394827510974 -0.4780659066210889 -0.2426551515778415
-0.8031210250369971 -0.506071305393397 -0.3144653446740128
-0.7482903757104624 -0.5309554769467675 -0.3976780043192288
-0.6613521286983854 -0.5640135008246758 -0.4944715692065692
-0.604834919747713 -0.5264708052323852 -0.5974974569751247
0 0 0
0 0 0
0 0 0
0 0 0
0 0 0
0 0 0
0 0 0
0 0 0
0 0 0
0 0 0
0 0 0
0 0 0
0 0 0
-0.6464713803740212 0.509189337728854 -0.5681557644700594
-0.7094804728466705 0.5347361988809487 -0.459014875854387
-0.7609886496340851 0.5419384107192726 -0.356649735896664
-0.8128023903946977 0.5203157575770713 -0.2619614219415962
-0.8532945150237086 0.4885240869030231 -0.1822983465257457
-0.8853167270902805 0.4503158334376681 -0.1158876304421282
-0.9118770574503539 0.405991857225545 -0.06042221414542777
-0.9341331163805948 0.3566258300806678 -0.01460610147684415
-0.952781756466025 0.3027922370385775 0.02288636569421559
-0.9681000722676393 0.2449250859179565 0.05285785053776374
-0.980023800177936 0.1839343540866455 0.07564062712276362
-0.9883899846868648 0.1212084134824586 0.09161745833499184
-0.9931567160660473 0.05777921268971272 0.1014953196648057
-0.9943563455972636 -0.00580131549104913 0.1059330104784514
-0.9920275568551959 -0.06923914972606431 0.1052960900751877
-0.9861914669472218 -0.1323108882988332 0.09960029798178111
-0.9768537116029126 -0.194737954762807 0.08850963282271448
-0.9640347377487789 -0.2560096737101926 0.07138677314771304
-0.9478425684380249 -0.3151754516416229 0.0475278880164722
-0.9284993433362857 -0.3709655217921182 0.01653937923825785
-0.9060517001276186 -0.4226003898564525 -0.02189125827871874
-0.8801127030942471 -0.4697937618496317 -0.06852336228840776
-0.8498057160165803 -0.5121435556281538 -0.1246564216320148
-0.8137462830460112 -0.5487398791464394 -0.1915764386952419
-0.7685485616027211 -0.5793801546294571 -0.2713885496477958
-0.7111040972661072 -0.6004519376980992 -0.365771012200191
-0.6540007021700976 -0.593493885336384 -0.4690928368983501
-0.5856050402753539 -0.5674813875186343 -0.5788191527791959
0 0 0
0 0 0
0 0 0
0 0 0
0 0 0
0 0 0
0 0 0
0 0 0
0 0 0
0 0 0
0 0 0
-0.6087094372206961 0.555419024909555 -0.5665531994499563
-0.6771014881078231 0.5846116341844739 -0.4469483325601849
-0.7305549957898653 0.5942161573719331 -0.3364469593332707
-0.7747278773660498 0.5861182240990989 -0.2371964236889185
-0.8143095177584232 0.560777326003651 -0.1497624783723821
-0.8480034804663498 0.5244861809389137 -0.07618623970947541
-0.8765866713247883 0.4810022498327053 -0.01525264933060155
-0.901208035719681 0.4319658238002649 0.03506570151632624
-0.9225080312312869 0.3783390484815873 0.0764100563265169
-0.9407648648116713 0.3206942776124949 0.1100756532684549
-0.9559882669734773 0.2595050061770445 0.136907213754787
-0.9680019506256151 0.1954500607659762 0.1573896354007457
-0.9765690645713748 0.1294429543271432 0.1719226096162176
-0.9815084752257024 0.06234704303487255 0.1809805494657472
-0.9827246760339848 -0.005169202748452297 0.1850013255542896
-0.9801954535981223 -0.07259426606261526 0.1842469681715299
-0.973960511684606 -0.1394766333269356 0.1787377700287311
-0.9641229812667287 -0.2053253072174653 0.1682509887323342
-0.950861926896199 -0.2695203134758009 0.1523824025376718
-0.9344378761133196 -0.3312829111339254 0.1306808649935377
-0.9151411083947376 -0.3898170308497618 0.1027591075551262
-0.8931433592570072 -0.4445800631689923 0.06814328468574662
-0.8683615513975343 -0.4952497997259598 0.02599715226449419
-0.8403785271762677 -0.54142410889587 -0.02497729703870065
-0.8083482434928101 -0.582325448550028 -0.08643025635213955
-0.7708400956524514 -0.6165092497403247 -0.160380459904381
-0.7268323942259506 -0.640432946391525 -0.2481135060411699
-0.6776348220063018 -0.6479157308451589 -0.3478739049251476
-0.6184082895847576 -0.6381321205958117 -0.4586486498799994
-0.5440842124983933 -0.6082959746844198 -0.5778826670637685
0 0 0
0 0 0
0 0 0
0 0 0
0 0 0
0 0 0
0 0 0
0 0 0
0 0 0
-0.5701663065964083 0.5797867944180155 -0.5820289132342925
-0.6350398636066661 0.6249135247782214 -0.4541007136965164
-0.68795317728056 0.6444137441026869 -0.3338433049817512
-0.7316152845766872 0.6429985403573822 -0.2264772670094021
-0.7688652022435257 0.625414565701462 -0.1330523272531279
-0.8020669433203318 0.5948786546116858 -0.05299060973578004
-0.8317896732980404 0.5549098286647951 0.0141782031987948
-0.8584592104668942 0.5080958584996078 0.06990266475680619
-0.882432036230831 0.4559222198239579 0.1159682323065384
-0.9038409928943387 0.399227354230031 0.153912245121253
-0.9226109634470469 0.3385303734695269 0.1848950955701472
-0.9385103517891265 0.2742842003229466 0.2096818948737618
-0.9512117857009157 0.2070664039193917 0.228734875153672
-0.9603700944125406 0.1376230587085954 0.2423822919887878
-0.9656997887231541 0.06676025830108448 0.2509322338234516
-0.9670194425034151 -0.004756226986841911 0.2546581554265118
-0.9642657310962188 -0.07622584199019014 0.2537345479952625
-0.9574946921302039 -0.1469837023071248 0.2481928802334504
-0.9468809204283258 -0.2163585847816492 0.2379190730481432
-0.9327123779468198 -0.2836471222306499 0.2226924562598804
-0.9153664177368576 -0.3481406897062126 0.2022433718332309
-0.8952487851390362 -0.4092196569129692 0.1762636806126288
-0.8726994530439378 -0.4664494687063482 0.1442933047662861
-0.8479073486348354 -0.5195301425957768 0.1055535838588858
-0.8208473322352385 -0.5681070411452142 0.05885615484825017
-0.7912228867059905 -0.611522237414022 0.002626157037850086
-0.7584448440216407 -0.6484913573031114 -0.06496443704179378
-0.7218097549558969 -0.6766407927094278 -0.1454232281723408
-0.6804630953800729 -0.692616726180174 -0.2392739986735431
-0.6317053549084344 -0.6932164324826001 -0.3469860549303176
-0.5726966255024141 -0.6734345000509107 -0.467444701841113
-0.5017292836861404 -0.6275320347864383 -0.5953748997132682
0 0 0
0 0 0
0 0 0
0 0 0
0 0 0
0 0 0
0 0 0
0 0 0
-0.606904926584633 0.6372746560782425 -0.4749183327769713
-0.6424886022654113 0.6827238360829276 -0.3479893096105816
-0.6817906268470694 0.6939148800315021 -0.2316110541713099
-0.7176420056206834 0.6841351621977743 -0.1301884465432597
-0.7499510869132766 0.6600558078804384 -0.04358552191836124
-0.7797287554411431 0.6254126695763346 0.02969950625192539
-0.807527845036349 0.5827313243094807 0.09123038506697481
-0.8335452111791288 0.5337109885625734 0.1426708155436889
-0.8577531045703681 0.4793843245822402 0.18560786875756
-0.8799457770103699 0.4203614659788977 0.2213406140808493
-0.899779250899751 0.3570602773600878 0.2508092063338578
-0.9168152385839247 0.289893734814798 0.2746114360608969
-0.930570952500436 0.2194033058822325 0.2930868330894074
-0.9405805351185975 0.1463012151748144 0.306437940526927
-0.9464589038889454 0.07142497761743807 0.3148237853493343
-0.9479513331784533 -0.004335631271607748 0.3183857286793319
-0.9449609759996523 -0.0800871035104485 0.3172299003705204
-0.937558742579837 -0.1549531239935717 0.3114050956178254
-0.9259797974270738 -0.2280827561752463 0.3008981074922503
-0.9106056019151429 -0.2986704954088028 0.2856455372188049
-0.8919255696836815 -0.3660000319690515 0.2655423784315654
-0.8704756555821485 -0.4295059145282936 0.2404096554301471
-0.8467653075010402 -0.4888047276218185 0.2099010535162414
-0.821212062617064 -0.5436432918407252 0.1733860416781196
-0.7940885197300951 -0.5937646260927294 0.1298729826939655
-0.7654710077744574 -0.6387254059568122 0.07799994898755576
-0.735188085385556 -0.677671634867386 0.01611317483564088
-0.702766063160272 -0.7090922974399867 -0.05751499092839426
-0.6672973447665513 -0.7306402267002714 -0.1444960649806281
-0.6273720536299426 -0.7387179901123041 -0.2463737758134689
-0.5829217300815206 -0.7266660879473253 -0.3635363162410275
-0.5420826470231435 -0.6806561205611192 -0.492801835770798
0 0 0
0 0 0
0 0 0
0 0 0
0 0 0
0 0 0
0 0 0
-0.4903581820549305 0.6983673812197394 -0.5213749650108508
-0.5751231574356124 0.7258815844717309 -0.3772655286480602
-0.6226134906244035 0.7410437954013938 -0.2514090980644743
-0.6595716728882137 0.7382289574300371 -0.1413619989077791
-0.6918235517793698 0.7205322252635203 -0.04704769452562726
-0.7215025885790216 0.6916305388433909 0.03288179455216909
-0.7496991772144307 0.6541130139105955 0.1004355948695578
-0.7768754616882226 0.6096234221841267 0.1575557049148779
-0.8030729089755481 0.559163222050944 0.2059378400759731
-0.8280600861229122 0.5033120761277314 0.2469685157952477
-0.8514231605482928 0.4424187703993399 0.2816810843494669
-0.8726255243251601 0.3767680826547715 0.3107579543453171
-0.8910564951258232 0.3067203064613442 0.3345758151724991
-0.9060833393697908 0.2328087019774363 0.3532889616165063
-0.9171118180222892 0.1557779339387734 0.3669320761961511
-0.9236515681618926 0.07655795241293969 0.3755085359274991
-0.9253729763853913 -0.003797241248379559 0.3790388311697666
-0.9221457985983238 -0.08417830996805603 0.3775726926809999
-0.914055268501812 -0.1634795552755772 0.371183783496773
-0.9013959619570697 -0.24065287321311 0.3599604344671272
-0.884643315663071 -0.3147603803479521 0.3439943415462819
-0.8644037412703273 -0.3850298398043827 0.323354595665613
-0.8413489841949058 -0.4508972024911209 0.2980328833868514
-0.8161466028979532 -0.5120133226875586 0.2678564540356946
-0.7893985523306284 -0.5681925680891119 0.2323943440503815
-0.7615878012472391 -0.6193114691006785 0.1908856339061541
-0.733022703495253 -0.6651728869303988 0.1422067039671074
-0.7037637682399034 -0.7053452332011425 0.08488027163715277
-0.6735145745724015 -0.7389753884082237 0.01713164222925946
-0.641456675323038 -0.7645652331631512 -0.06303441854804336
-0.6060457469032701 -0.7796521044156531 -0.1576424712464899
-0.5646824846262593 -0.7805861424144889 -0.2679906077212058
-0.5112599749802053 -0.76391680327014 -0.3937567214217038
-0.4190929406091082 -0.7338636910596085 -0.5346075103063717
0 0 0
0 0 0
0 0 0
0 0 0
0 0 0
-0.4183916562455851 0.6985322511988103 -0.5805179721758815
-0.4925461804767517 0.7553463193299762 -0.4322617239270904
-0.5510420100969194 0.7819195411757645 -0.2914696111704068
-0.5933169650081919 0.7870395329810839 -0.168948964360201
-0.6273000550135623 0.7760960280768292 -0.06457241038826315
-0.657390298350195 0.7531803683323235 0.02360780366375961
-0.6857389556464857 0.7212086475404751 0.09808247255093783
-0.7133566778907101 0.681979347162767 0.161327059578284
-0.7405989034869671 0.6364706448967418 0.2154492569925153
-0.767401749941494 0.5851509512474863 0.2620933391768932
-0.7934191838863073 0.5282132945828502 0.3024511763361425
-0.8181105289985088 0.4657507764933545 0.33730012827987
-0.8408012019872576 0.397899127582443 0.367055340522261
-0.8607363908878709 0.3249518959699904 0.3918406955726143
-0.8771393964557346 0.2474439516668309 0.4115798464074401
-0.8892812355163824 0.166186053918686 0.4260998470328186
-0.8965562147575737 0.08224627718540219 0.4352269565051231
-0.8985522503433132 -0.003115190999957479 0.4388554989834363
-0.8951017141277525 -0.08853531357726041 0.4369833173192481
-0.8863042334609336 -0.1726473551316265 0.4297181593966914
-0.8725174696809611 -0.2541753907560267 0.4172626700719264
-0.854317667048639 -0.3320199255984825 0.3998800979970726
-0.8324361704781077 -0.4053229679706249 0.3778403283335777
-0.8076829779558322 -0.4735037114829469 0.3513437666051188
-0.7808708701200308 -0.5362502087490635 0.3204315805512485
-0.7527491727623797 -0.5934666945419603 0.2848964116569254
-0.7239470358089626 -0.6451837555300891 0.2442101778049106
-0.6949157780958789 -0.6914458331479552 0.1974708109461461
-0.665855325314916 -0.7321767597091732 0.1433662383252854
-0.6366055468183583 -0.7670131519212314 0.08015112313596257
-0.6064819114087631 -0.7950771958565164 0.005651881360332868
-0.5740183416145814 -0.8146639273083776 -0.08261736519966843
-0.5364959321639967 -0.8229103482044796 -0.187057941797364
-0.4889409011259077 -0.8156408673731605 -0.3093004537289641
-0.4232039010831271 -0.7871267314406691 -0.4486980797368657
-0.3415094943137852 -0.7281386515237802 -0.5942940092670237
0 0 0
0 0 0
0 0 0
0 0 0
-0.4473922053984203 0.7412153796743628 -0.5004397820746538
-0.4839971509939546 0.8008383216741157 -0.3527105617470505
-0.5235680726044021 0.8240187755816919 -0.2164937200894293
-0.5579811556961219 0.8239342207555735 -0.09894154716763323
-0.5883049290814835 0.8086391604339954 0.000136495542348233
-0.6165250677805667 0.782908175831641 0.08337642960776874
-0.643986006142568 0.7494109053875115 0.1538353625757549
-0.6713723594748099 0.7094768475773571 0.214246954902332
-0.6988832642829617 0.6636229642551524 0.2667709583489102
-0.7263659215903163 0.611919748710831 0.312964485349254
-0.7534035289890809 0.5542399597027757 0.3538378012246067
-0.7793752201709232 0.4904377266720124 0.3899296121613653
-0.8035057456478177 0.4204884573897568 0.4213881511301977
-0.8249174665358315 0.3446046483260771 0.4480611674271328
-0.8426961031021751 0.2633201806323803 0.4696017038812128
-0.8559724791437837 0.1775313668308756 0.4855859643148727
-0.8640154720846923 0.0884791346534191 0.4956296063889318
-0.8663206348448692 -0.002324757216909243 0.499482885738705
-0.8626774089882877 -0.09321769301998663 0.4970896797654176
-0.8531995654511616 -0.1825273306231599 0.4886044157491127
-0.8383127852337139 -0.2687136179782849 0.4743676481661802
-0.818702045390762 -0.3504867599049878 0.4548472183099348
-0.7952305714840693 -0.426887696695697 0.4305522414143985
-0.7688469520637145 -0.4973176328603439 0.4019322534314953
-0.7404966319838387 -0.5615178603960373 0.3692728401559571
-0.7110479718976608 -0.6195050441485335 0.3326022879277083
-0.6812328408350066 -0.6714786057095005 0.2916132689750098
-0.6515938509715348 -0.7177093711906878 0.2455986805362611
-0.6224246091585284 -0.7584111883065449 0.1933909909104012
-0.5936883688385364 -0.7935768672606519 0.1333037000784563
-0.5648995280196862 -0.8227443254274872 0.06308960469050257
-0.5349575308747965 -0.8446418316167564 -0.02001540515281677
-0.5019640374643466 -0.8566595223926873 -0.119023391761555
-0.4633243648881671 -0.8540647473735674 -0.2364401408278642
-0.4176768940741219 -0.8287868422264125 -0.3723686107997899
-0.3744163358241802 -0.7673950993147525 -0.5204970403524839
0 0 0
0 0 0
0 0 0
-0.3337708374996191 0.7372506010343931 -0.5874168701265128
-0.412048724225107 0.8037204432805052 -0.4292427028121146
-0.4543592640636004 0.8449226078533906 -0.2822471362083385
-0.4875543331192828 0.8598737180051661 -0.1513537622280424
-0.5166974833018178 0.8552617084221167 -0.03938427168870084
-0.5438415215566245 0.8373977493539028 0.05478511483964389
-0.5702992140787851 0.8104140869665186 0.13411865667141
-0.5968716407814039 0.7765335406773533 0.201841285751968
-0.6239419617714511 0.7366911555921759 0.2607346728248026
-0.6515600775700054 0.6910518005909048 0.3129167208971682
-0.6795021805834945 0.6393724678153347 0.3598327861410132
-0.7073075347069838 0.581252344967638 0.4023204727780458
-0.7343064220794681 0.5163168355974218 0.4406937755080218
-0.7596506827143729 0.4443699908001764 0.4748327616412306
-0.7823599828119886 0.3655245409849954 0.5042862949080934
-0.8013911989865452 0.2803051358140155 0.5283949063183646
-0.8157343116379882 0.1897024969625778 0.546434346891427
-0.824525431158173 0.0951614634755571 0.5577652814962747
-0.8271593782521821 -0.001509454478783548 0.5619653766173136
-0.8233765652330671 -0.09829365874310286 0.5589180516640078
-0.8133036566211614 -0.1931626195753577 0.5488400172413024
-0.7974372171163729 -0.2842703997256861 0.5322445157984182
-0.7765755956381748 -0.3701129157909281 0.5098497561281664
-0.7517162495447706 -0.4496229705233882 0.4824540025205181
-0.7239419876246784 -0.5221956297202377 0.450798982757408
-0.6943170232179088 -0.5876481820652469 0.4154437210805232
-0.6638048217417356 -0.6461356645516649 0.3766588132870384
-0.633209250831763 -0.6980398364644705 0.3343447791871917
-0.6031314576800302 -0.7438475718498336 0.2879639467188003
-0.5739309659177916 -0.7840165668530124 0.2364767837667919
-0.5456774771317741 -0.8188126857698194 0.1782747221944742
-0.5180815228397804 -0.8480815404713936 0.1111271182190982
-0.4903964648479162 -0.8709044261983964 0.03219918776472108
-0.4613068414279694 -0.8850915507528651 -0.06171664959828834
-0.4288664124038771 -0.8865534768187561 -0.1734835238643783
-0.3904560765442401 -0.8689755573552146 -0.3040156788865865
-0.34097052821973 -0.8253907699001891 -0.4499657496400483
-0.2545330381015062 -0.7556009264016517 -0.6035562712256269
0 0 0
0 0 0
-0.3634119894880933 0.7696218336569218 -0.5249894847088485
-0.3915884901915332 0.8435634955474839 -0.3675038548494761
-0.4197512892959889 0.8799728457424328 -0.2223885021540423
-0.4456457271984435 0.8900412563621557 -0.09605440022739808
-0.4702351922586351 0.8824730193011148 0.01096513415595194
-0.4945034434835399 0.8632879195122056 0.1009965960179277
-0.5191501508753519 0.8360703366354036 0.1773964854343549
-0.5445890697539175 0.8025895473221866 0.2434599836394672
-0.5709848194582471 0.7634250500634565 0.3019247073093579
-0.5982816619333344 0.7184444442458963 0.3548191560872836
-0.6262134990725403 0.6671375092495448 0.4034652368316738
-0.6543028932469575 0.6088536778208481 0.4485364231505471
-0.6818592252112988 0.5429915168740891 0.490130808659303
-0.7079900081443049 0.4691672981237783 0.5278562254431224
-0.73163632854755 0.3873731507742704 0.5609370060966519
-0.7516436613335039 0.298109225160012 0.588355926503389
-0.7668691934981553 0.2024649087597078 0.609031691116654
-0.7763172021610522 0.1021141509914264 0.6220163195577231
-0.779277753368866 -0.0007907626647551362 0.6266781931731632
-0.7754375230384558 -0.1038232993604526 0.6228301296291739
-0.7649322116508939 -0.204543006322364 0.6107707181450998
-0.7483267089324359 -0.3007579811872895 0.5912290363729564
-0.726529229018425 -0.3907291386159257 0.5652309436136252
-0.7006643275507192 -0.4732841893456036 0.5339209456589739
-0.6719359796696995 -0.5478313370011811 0.498380241808219
-0.6415074727507706 -0.6142937687800568 0.4594685278045852
-0.6104127495186289 -0.6729922213516568 0.4177053330103289
-0.5795006753602501 -0.7245075513822491 0.3731859794353359
-0.5494044912751157 -0.7695391231513156 0.3255214937699737
-0.5205237265268293 -0.8087629007309538 0.2737838938357689
-0.4930054085318134 -0.8426713000840478 0.2164503341947984
-0.4667120946577114 -0.8713623014562996 0.1513524373804126
-0.441169197590589 -0.8942273969201678 0.07567761686691582
-0.4154980514026475 -0.9094882353894194 -0.01387512049829533
-0.3883804344115802 -0.9135745153043136 -0.1205912233653854
-0.3581850653042105 -0.9004829018314265 -0.2466454996594735
-0.3236932589144901 -0.861448621378868 -0.391316939139828
-0.2884431579004191 -0.7849079075023404 -0.5483795413768922
0 0 0
0 0 0
-0.345778482795142 0.8131688400853271 -0.4681812451926844
-0.358828333092222 0.8797617247069939 -0.3118678167282293
-0.3777176696404179 0.910051942305228 -0.170689262544231
-0.3979912641341654 0.916068694371665 -0.04920468336532047
-0.4188691956464808 0.9064774378099837 0.05335964467569655
-0.4405189433187819 0.8867569476763436 0.1400184856547069
-0.4632151928767897 0.8599348812010368 0.214344781093164
-0.4871352192880846 0.8273497461759975 0.2796277447458702
-0.5123215862513838 0.7892576805514013 0.3385246016931223
-0.5386698067724532 0.7452620655576314 0.3929622029056993
-0.5659094062755798 0.694609340862922 0.4441445794724923
-0.5935772366864676 0.6364100649282255 0.4925934361577591
-0.6209943355280192 0.5698297803776111 0.5382007586736727
-0.6472581616904507 0.4942791411431442 0.5802973399524536
-0.6712664436689016 0.4096050467206352 0.6177580977252267
-0.6917840507623088 0.3162657247641385 0.6491616273704915
-0.7075593337638715 0.2154465104689847 0.6730100967521686
-0.7174787487426256 0.1090724415984421 0.6879879705245362
-0.7207330489028931 -0.0003186831324739937 0.693212644619384
-0.7169529078457328 -0.1098347615293908 0.6884147391589823
-0.7062756032053817 -0.2165723078616295 0.6739964449345122
-0.689321929363591 -0.3179567920111264 0.6509521918792875
-0.6670928409802919 -0.4120028487708833 0.6206776893988691
-0.6408176771571172 -0.4974431057022615 0.5847247739169641
-0.6117947063664463 -0.57372643012342 0.5445596575581316
-0.5812565549520063 -0.6409139493326527 0.5013682547550719
-0.5502774087783585 -0.6995213663770993 0.4559217382074371
-0.5197226779091431 -0.7503452494306946 0.4084976679538541
-0.4902310243538052 -0.7942996014216361 0.3588337859545115
-0.4622141653612684 -0.8322643352440362 0.3060949879043888
-0.4358594087046032 -0.8649319748312887 0.2488357987873127
-0.4111222615493142 -0.8926182043547572 0.1849627727762145
-0.3877016221197243 -0.9149891715996118 0.111724071091192
-0.3650071663078545 -0.9306469955617577 0.02580577834097348
-0.3421807042784382 -0.9365295726216237 -0.07631988747810185
-0.3183885472491552 -0.9271448472246538 -0.197563066501168
-0.294041661423755 -0.893798669362008 -0.3386199048990783
-0.2747011926702064 -0.8241740570073511 -0.4952538525863364
0 0 0
0 0 0
-0.297481175356795 0.8575107242494382 -0.4197383805485784
-0.3104737838080479 0.9130878064716089 -0.2643419891745889
-0.3270397788560788 0.9363929982171098 -0.1273308129862456
-0.344518695418092 0.9387225484671188 -0.01033661002520906
-0.3627671022928678 0.9276673774736957 0.08850574142455983
-0.3820482092586211 0.9078788710481667 0.1726126336818555
-0.4025884485246334 0.8818049178514722 0.2456473650733638
-0.4245105145820934 0.8503856864757751 0.3108617172415583
-0.4478315904919319 0.8135890520897321 0.3708365150267666
-0.4724549664539948 0.7707807093466386 0.4274147900717128
-0.4981433640372548 0.7209814797141048 0.4817041569001728
-0.5244815888005095 0.6630686036542198 0.5340965173611747
-0.5508386111713748 0.595969293740013 0.5842922431128282
-0.5763454375278342 0.5188712462677835 0.6313466293862398
-0.5999048184834812 0.4314546977317031 0.6737663189604727
-0.6202512085267349 0.3341159280769101 0.7096865399078873
-0.6360686029227398 0.2281308614988495 0.7371384146873002
-0.6461597756290464 0.1156882846079086 0.7543830361053324
-0.6496348608907284 -0.000254205103184024 0.7602463304056446
-0.6460714097748477 -0.116295808864653 0.7543653082638785
-0.6355952665587256 -0.2290286680061868 0.7372682865548019
-0.6188570263624227 -0.3354730596352049 0.7102631957104726
-0.5969137811143026 -0.4333956469850904 0.6751756446216056
-0.5710568004011861 -0.5214539335377513 0.6340188687362277
-0.5426336146241482 -0.5991672904464387 0.5886826975026561
-0.512903200849146 -0.6667674861373875 0.5406953171507303
-0.4829420880782143 -0.7249897835122109 0.4910771358611303
-0.4536005434769284 -0.7748606084888942 0.4402698994590197
-0.4254956850436524 -0.8175089388240613 0.3881141030057909
-0.3990242041079873 -0.8540080997895833 0.3338410550393283
-0.3743777564090688 -0.8852296651181063 0.2760611082731442
-0.3515467261046205 -0.9116778101778338 0.2127403812031742
-0.3303021726804118 -0.9332555802842807 0.1411895767783483
-0.3101561288068739 -0.9489071605653787 0.05812380227827204
-0.2903329349582376 -0.956086035990344 -0.04007840644044913
-0.2698881101183238 -0.9500529382027892 -0.1567157382939123
-0.2484588870270728 -0.9231088121733128 -0.2934932747870779
-0.2294697510184921 -0.8636732948814241 -0.4487895643574786
0 0 0
-0.1308573896280041 0.8234831449787955 -0.5520433438739898
-0.216862281303727 0.8983039080789399 -0.3821267324826226
-0.2500050210594273 0.9410959408850212 -0.2276750304596691
-0.2698565796520501 0.9583476783583778 -0.09352621987230827
-0.286388403275078 0.9578975362297331 0.02034680698678743
-0.3025803956526639 0.9459591533574683 0.11664640734244
-0.3194844930130806 0.926428651647023 0.1991472122116027
-0.3375236838028978 0.90127581190165 0.2716241405934722
-0.3568744728178154 0.8711183492088684 0.3373328212946699