# OOMMF: rectangular mesh v1.0
# Segment count: 1
# Begin: Segment
# Begin: Header
# Title: 
# Desc: time = 2.64e-09
# Desc: stepsize = 8.912924929078594e-14
# Desc: step = 16894
# meshunit: m
# valueunit: (none)
# valuemultiplier: 384000.0000000001
# xmin: 0
# ymin: 0
# zmin: 0
# xmax: 9.357999999999999e-08
# ymax: 9.357999999999999e-08
# zmax: 2.3395e-08
# ValueRangeMaxMag: 1
# ValueRangeMinMag: 0
# meshtype: rectangular
# xbase: 1.16975e-09
# ybase: 1.16975e-09
# zbase: 1.16975e-09
# xstepsize: 2.3395e-09
# ystepsize: 2.3395e-09
# zstepsize: 2.3395e-09
# xnodes: 40
# ynodes: 40
# znodes: 10
# End: Header
# Begin: Data Text
0 0 0
0 0 0
0 0 0
0 0 0
0 0 0
0 0 0
0 0 0
0 0 0
0 0 0
0 0 0
0 0 0
0 0 0
0 0 0
0 0 0
0 0 0
0 0 0
-0.8358503487555629 0.02996645818018705 -0.548138856376136
-0.8456997893938154 0.04862931491172359 -0.5314386662169699
-0.856255330869752 0.02946414414404914 -0.5157118115449648
-0.8618153815842382 -0.005418428118937561 -0.5071931473329793
-0.8605808315527156 -0.04481705507532207 -0.5073382145456928
-0.8526248374675133 -0.08007357274078664 -0.5163517303951076
-0.83994968095384 -0.09988084573565154 -0.5333932415401162
-0.8287016538611148 -0.08154982499695661 -0.5537176129859136
0 0 0
0 0 0
0 0 0
0 0 0
0 0 0
0 0 0
0 0 0
0 0 0
0 0 0
0 0 0
0 0 0
0 0 0
0 0 0
0 0 0
0 0 0
0 0 0
0 0 0
0 0 0
0 0 0
0 0 0
0 0 0
0 0 0
0 0 0
0 0 0
0 0 0
0 0 0
0 0 0
0 0 0
-0.7799055569158109 0.2407911316004962 -0.5777256729922869
-0.8079604786051925 0.2705583367344198 -0.5234482318582919
-0.8451661991012247 0.2533609847985195 -0.4706403162487386
-0.8820482332815127 0.2051914548816451 -0.4241313251912848
-0.9143907053721324 0.123337327019665 -0.385587268582221
-0.9277532589667803 0.08267920503004696 -0.3639203752637616
-0.9361337837882013 0.04369868785813644 -0.3489182762909702
-0.9400392235680504 0.0007706318668476063 -0.341065483859188
-0.9389449755324382 -0.04400272114885622 -0.341241986651532
-0.9328674729990146 -0.08722493159958628 -0.3494997698538291
-0.9223301703139684 -0.126753585180269 -0.3650213494750049
-0.9066158794947908 -0.1680141366986699 -0.3870644609329137
-0.8706652114273491 -0.249669836502314 -0.42380073425028
-0.8302591946391367 -0.2991324673738351 -0.4703078105666682
-0.789956214439557 -0.3180501955819155 -0.5242263369563086
-0.7598061036220261 -0.2898318532318228 -0.5819726640924998
0 0 0
0 0 0
0 0 0
0 0 0
0 0 0
0 0 0
0 0 0
0 0 0
0 0 0
0 0 0
0 0 0
0 0 0
0 0 0
0 0 0
0 0 0
0 0 0
0 0 0
0 0 0
0 0 0
0 0 0
0 0 0
0 0 0
-0.75256733640294 0.3346197937244762 -0.5671613507875621
-0.7904834100592341 0.3631638450698425 -0.4932017843187629
-0.8460362530525576 0.3260692845694851 -0.4217836888514443
-0.8802801197780131 0.3050027531650946 -0.3634284403913904
-0.9106154290273863 0.2718726741251535 -0.3112310869455467
-0.9376194663066214 0.2231230775741775 -0.266619257850429
-0.9590559785802448 0.1620810480432743 -0.2322528015217082
-0.971581712214916 0.1086751036590424 -0.2102824251672681
-0.9788104761318793 0.05805325873527428 -0.1963666747813852
-0.9818625542754803 0.007183547412057525 -0.1894579667319577
-0.9808681144069872 -0.044141100405336 -0.1896030205315484
-0.9758109452469661 -0.09520514264252669 -0.1967967986290373
-0.9664986519641423 -0.1462103172162718 -0.2109571020160549
-0.951654815173307 -0.2001439000563394 -0.2330140168052049
-0.9274290847861753 -0.2617705379178292 -0.2671169746962684
-0.8975391664449505 -0.311582175287451 -0.311993578043592
-0.8643849334152487 -0.3460856224892508 -0.3647786024302177
-0.8273763656963276 -0.3686930601198025 -0.4236906618119305
-0.7686059289287877 -0.4066994086920675 -0.4938021030585402
-0.7281551860108321 -0.3801098217256769 -0.5703565100121185
0 0 0
0 0 0
0 0 0
0 0 0
0 0 0
0 0 0
0 0 0
0 0 0
0 0 0
0 0 0
0 0 0
0 0 0
0 0 0
0 0 0
0 0 0
0 0 0
0 0 0
0 0 0
0 0 0
-0.7562103945028988 0.4151968017046903 -0.5057246831033317
-0.8076489793426883 0.415043455205099 -0.4188580385502061
-0.8476717838218537 0.4053329439600434 -0.3422831451488081
-0.8859824939722396 0.3741916222981844 -0.2738898504446318
-0.9157585072924442 0.3381193976263249 -0.216936924635538
-0.940608416557392 0.294716507796713 -0.1685170220882896
-0.9615295637296346 0.2428061848585137 -0.1284758913895946
-0.9779187443791634 0.1846104847525034 -0.09794844721242682
-0.988945101279038 0.1265435874682473 -0.07729364221498827
-0.9955100931959554 0.06930781194749445 -0.06446767832045719
-0.9982240469097833 0.01226454461116018 -0.05829522378835979
-0.9972848786484838 -0.04484143172353076 -0.05841332741816869
-0.9926720758737126 -0.1019886292193675 -0.06481102753797167
-0.9841367037034723 -0.1594301145818973 -0.07782664703086341
-0.9709997514130639 -0.217795780998458 -0.09861278078950522
-0.9523150632038573 -0.2763941970479452 -0.129237255593169
-0.9290129626010208 -0.3289250472009972 -0.1695382807601139
-0.9017124244764578 -0.3731935037877427 -0.2182688990108661
-0.8693190897694253 -0.4104324263005728 -0.2753716463317932
-0.828044571890128 -0.443051890686757 -0.3435799894088476
-0.7849873109237129 -0.4547178405315052 -0.4207452996661067
-0.7307309267633675 -0.4558489030336527 -0.5081673841113428
0 0 0
0 0 0
0 0 0
0 0 0
0 0 0
0 0 0
0 0 0
0 0 0
0 0 0
0 0 0
0 0 0
0 0 0
0 0 0
0 0 0
0 0 0
0 0 0
-0.6507679726422467 0.5044041326235061 -0.5675187369377577
-0.7024002293637361 0.540165844176024 -0.4635243020332089
-0.7828477518500424 0.505567925442546 -0.3626988698452949
-0.8326664015379651 0.4791697530955993 -0.2776022540760754
-0.8695336302059525 0.4494675652423604 -0.2046708912766087
-0.900511151526834 0.4110120557532937 -0.1419463137995002
-0.9260543335055936 0.3666092839568987 -0.08956005980413602
-0.9474447578941602 0.3165940196681652 -0.04600714563227273
-0.9652665735586985 0.2610490612607206 -0.01066909486064505
-0.9793948782840719 0.2012938022376739 0.0163241407622968
-0.9895389062976262 0.1399144510656873 0.03516673579228483
-0.9958379736750219 0.07811618055291616 0.04695308853153208
-0.998485262295688 0.01618294561644044 0.0525860556562815
-0.9975703937237458 -0.04581192471032573 0.05248406539308601
-0.9930785102197723 -0.1077893565335458 0.04665326524221985
-0.9848905699884982 -0.1696687515011745 0.03468544236077965
-0.9727899442051124 -0.2311577265553049 0.01567896384319363
-0.9566352215870659 -0.2910623097137666 -0.01147975100566685
-0.9367420890847938 -0.3468478909108427 -0.04701913554879475
-0.9132101688198134 -0.3972561510936205 -0.09074545708943242
-0.8853631522398111 -0.4423016083155653 -0.143183015534136
-0.8517849182478564 -0.4817685619734851 -0.2058191092670745
-0.8119342088315082 -0.5129292042241054 -0.2786870502610017
-0.7585400779269643 -0.540942634171898 -0.3633153130735373
-0.6736330282445198 -0.5767934091449661 -0.4620907988967591
-0.618225197652983 -0.5434920583080002 -0.5678150997843071
0 0 0
0 0 0
0 0 0
0 0 0
0 0 0
0 0 0
0 0 0
0 0 0
0 0 0
0 0 0
0 0 0
0 0 0
0 0 0
-0.6292518739231806 0.5502199624551209 -0.5489080725222121
-0.6926383031788755 0.5742007399235159 -0.4365153963387478
-0.7441823535292288 0.5799156390653419 -0.3314973246696467
-0.7961760230881516 0.5574862639162743 -0.2351867466593487
-0.8369515353447787 0.5251719564224507 -0.1539692945734064
-0.8694239491500493 0.4865287863052986 -0.08597521003536408
-0.8966669866178543 0.4417593868430037 -0.02893024793791862
-0.9198530263029121 0.3918289823316564 0.01845152043360662
-0.9396683181327952 0.3372243309278036 0.05747349413232516
-0.956367634629695 0.2783083367834827 0.08891241257334639
-0.9698418328641069 0.2159198293324236 0.1130727488294425
-0.9798496559089916 0.1513851387004555 0.1302965525087819
-0.9862578579608187 0.08572109265055435 0.1412350235788976
-0.9890190510718792 0.01951659015964904 0.1464937518306468
-0.9881146724482597 -0.04685909441748505 0.1464022519049511
-0.9835348985708694 -0.1130860823538042 0.1409632621325774
-0.9752822313756556 -0.1787821898761284 0.1298518299679187
-0.9633984626297436 -0.2433418156418374 0.1124640518689398
-0.9480244161701264 -0.3057446070980137 0.08814727208354987
-0.9294105282416895 -0.3646868937411868 0.05656447230291597
-0.9076441723705931 -0.4193776732564872 0.01744773726519181
-0.8824054263607748 -0.4695363669428901 -0.02993766268648872
-0.8529018265627551 -0.5147900897427775 -0.08688865143698846
-0.8178197878481506 -0.5542865719270675 -0.154716485176419
-0.7738765588991108 -0.5878798236811139 -0.2356106629487142
-0.7180025534824057 -0.612078155353815 -0.3314101159159384
-0.6623147675936051 -0.6088127342878817 -0.436676313985933
-0.5952037879734586 -0.5867082671911853 -0.549095492598111
0 0 0
0 0 0
0 0 0
0 0 0
0 0 0
0 0 0
0 0 0
0 0 0
0 0 0
0 0 0
0 0 0
-0.5864614606414219 0.5951612796345886 -0.5494051386782329
-0.6552601318578184 0.6232057936036708 -0.4269059596872508
-0.7087000353916967 0.6318310624679583 -0.3139008893527034
-0.7527445102155423 0.6230459446768447 -0.2125781107313283
-0.7923265000554242 0.597474417437058 -0.1234626980839533
-0.8262221736616683 0.5612720030436985 -0.0482768924963282
-0.8552596427767326 0.5180014839249844 0.0143319952877898
-0.8806254644348519 0.469134855981921 0.06641745472180466
-0.9029710690183065 0.4154880569397698 0.1096034810412099
-0.9225608133419142 0.3575118359634357 0.1451441794628993
-0.9393695373782027 0.2955808667325104 0.1738298693191665
-0.9531616605998365 0.2302941752236298 0.1960801918109772
-0.9636143748914768 0.1625147866783838 0.2122175313525879
-0.9704462732594508 0.09310332144351238 0.2226337850664822
-0.9734661823334978 0.02277933601214404 0.2276942987953149
-0.9725755238043738 -0.0478506116089037 0.2276118834008911
-0.9677651775671199 -0.1182114759289192 0.2223884170706446
-0.9591199137052974 -0.1876786845751574 0.2118152555650345
-0.9468283153408329 -0.2555058756166403 0.1955323216100438
-0.931180622749979 -0.3208114199645297 0.1731550768395273
-0.9125101401897046 -0.3827289698227809 0.144373750070287
-0.8910478171763078 -0.4406795996286667 0.1087900637763142
-0.8667879149161278 -0.4943390002607212 0.06563279193041931
-0.8394011290141377 -0.5433409735059581 0.01365031572485989
-0.8081266717863341 -0.5869843751040772 -0.04879165636886873
-0.7716120225235268 -0.6239403166515323 -0.1237471937214637
-0.7288499324723874 -0.6508259980243986 -0.21261066819551
-0.6810068423676786 -0.6616283895725652 -0.3138113362516035
-0.6231943474909798 -0.6554852241788388 -0.4265769873522347
-0.5502186973814244 -0.6295127797910366 -0.548610103016386
0 0 0
0 0 0
0 0 0
0 0 0
0 0 0
0 0 0
0 0 0
0 0 0
0 0 0
-0.5432634825440404 0.6181352523370724 -0.5681316734281799
-0.6086038157738263 0.6622821050383803 -0.4370169433459873
-0.6614370481819437 0.6810300925238816 -0.3141640405413542
-0.7047891212748488 0.6792535886175055 -0.2046627882221551
-0.7417146706186268 0.6617359615888029 -0.1093840231900603
-0.7747395027447056 0.6316782555943764 -0.02759138083045957
-0.8045277644253206 0.5924731686832976 0.04135965013353326
-0.8315688571527633 0.5465244146286101 0.0990166654079071
-0.8562606424814165 0.4951291607445542 0.1471897629514521
-0.8787523928122078 0.438951839272796 0.1873913416512297
-0.8989576698126825 0.3783597545114912 0.2207238184948684
-0.9166052105433896 0.3136793578727182 0.2478712336058123
-0.9312978912205792 0.2453927746330676 0.269196255482847
-0.942592582388651 0.1741929162193774 0.284914112610946
-0.9500882168507846 0.1008898544996479 0.2952179152089786
-0.9534877236999386 0.02631482191985886 0.3002810198811022
-0.9526290305593225 -0.04871181168941425 0.3002084101712341
-0.9474986480985758 -0.1233686932520014 0.2950025040176169
-0.9382367856635102 -0.1968122389072587 0.2845640115055235
-0.9251317104190331 -0.2681733346065046 0.2687273357572344
-0.9085905675549111 -0.3366024711835071 0.2473094356133631
-0.8890719210798109 -0.4013775872604777 0.2201071366230802
-0.8669874064759113 -0.4620060593607471 0.1867705494078923
-0.842611095355374 -0.5181774462269704 0.1466242688156066
-0.8160080345053431 -0.5695750268826903 0.09856559427259005
-0.7869664129267349 -0.6156271394792725 0.0410742019008947
-0.7549657972812019 -0.6551800799054743 -0.02767142624828901
-0.7193312838162198 -0.6860238866931541 -0.1092416175719078
-0.6791772944600413 -0.7049660591036385 -0.2043062852724382
-0.631766744519761 -0.7089065730848911 -0.313563791206731
-0.5741480307837424 -0.692878405148231 -0.4362035699376998
-0.5043598476650524 -0.6510447701813423 -0.5672405585664757
0 0 0
0 0 0
0 0 0
0 0 0
0 0 0
0 0 0
0 0 0
0 0 0
-0.5766083607613731 0.6735518924804105 -0.4624398841321313
-0.611905196870195 0.7179817632608561 -0.3317743475136069
-0.6506654338628016 0.7288849331411292 -0.2129818006684686
-0.6858729777621478 0.7194184740791429 -0.1096144038405602
-0.7175793847953676 0.6961539611947457 -0.02120115160940962
-0.7469199793711144 0.6627220827571655 0.05394428090407608
-0.7745487882660435 0.6215021003869174 0.1175130367672171
-0.8007430380904625 0.574010203008374 0.1712392297107788
-0.8255332074509367 0.5210810337309042 0.2167244325905601
-0.8487443178414783 0.4631290911673206 0.2552342607220561
-0.8700306744544551 0.4003902404236309 0.2876356738685801
-0.8889157793671043 0.3331201849214122 0.3144195916130179
-0.9048406716559222 0.2617401350069584 0.3357907989266503
-0.9172282893371957 0.1868963111337679 0.3517982861302064
-0.9255587377968597 0.1094294239178813 0.3624447876144504
-0.929437030641557 0.03030872355474188 0.3677338539605607
-0.9286409414671524 -0.04942451543738313 0.367672706499653
-0.9231475810803004 -0.128696580696791 0.3622647287033944
-0.9131398568412231 -0.2064369498666132 0.3515101528800548
-0.8989905448581491 -0.2816259778939462 0.3354143837567584
-0.8812192834832702 -0.3533640882605009 0.3139847059094695
-0.8604227960999505 -0.4209503461857029 0.2871818552723678
-0.8371921071055316 -0.4839234313859129 0.254808728963282
-0.8120369292320947 -0.542011626736739 0.2163779610900868
-0.7853219168828279 -0.5949969861078066 0.1710206811649007
-0.757205948282068 -0.6425272217131425 0.1174645531377184
-0.7275824852162138 -0.6838838894833212 0.05409762390125959
-0.6960166524010808 -0.717723456464359 -0.02082929718559638
-0.6616091817588646 -0.7418800859635878 -0.109028568104991
-0.62293117469549 -0.7529348623650706 -0.2122400636726929
-0.5798131291544676 -0.744403057713371 -0.3311809519387964
-0.5400728165099953 -0.7026591784158331 -0.4632401449086066
0 0 0
0 0 0
0 0 0
0 0 0
0 0 0
0 0 0
0 0 0
-0.4556635990007891 0.7306077786532506 -0.5085105292095831
-0.5407844940915777 0.7584754537943462 -0.363685464297896
-0.5877367501791905 0.773868940157538 -0.235992321799359
-0.6238069848297569 0.771657772278506 -0.124133509415387
-0.6550525994204237 0.7550620877025601 -0.0280595029677362
-0.6837593492681233 0.727728350146337 0.0537084786762959
-0.7111464675470652 0.6921466437284937 0.1233033871015376
-0.7377919835931996 0.6498164603666422 0.1827609279418859
-0.7638393660016085 0.6015582559987714 0.2338313229359504
-0.7891387271089748 0.5477462001050635 0.2779103626122819
-0.8133291664985797 0.4885118285999893 0.3159934496799256
-0.8358894889374003 0.4239255943018451 0.3486772903126876
-0.8561801268779697 0.3541525831334368 0.3762067758548977
-0.8734913007340098 0.2795715288629491 0.3985633046220386
-0.8871066036912725 0.200836432605538 0.4155798371259315
-0.8963800781993054 0.1188723535882154 0.4270504876004764
-0.9008137424312013 0.03482358659919207 0.4328070231216926
-0.9001206397130725 -0.0500207142409987 0.432759473737258
-0.8942634327052178 -0.1343093098418657 0.4269120778521985
-0.8834631226707284 -0.2167164194572083 0.4153635809968565
-0.8681753868063656 -0.2960328222601564 0.3982914333604268
-0.8490359540610075 -0.3712536891562713 0.3759104241698712
-0.8267834974383252 -0.4416447561579832 0.3483948302168182
-0.802175717618132 -0.5067592526125113 0.3157676011807474
-0.7759131216534879 -0.5663872916295949 0.2777845631535905
-0.7485730169552982 -0.6204469865227439 0.2338460502152818
-0.7205445071456978 -0.6688383178413335 0.1829505884367085
-0.6919501838195423 -0.7112698459379497 0.1236937725655819
-0.6625349697630888 -0.7470591612291061 0.05431411846552418
-0.6315023532689668 -0.7748953386017617 -0.02723953063137024
-0.5973112767097619 -0.7925016332566774 -0.1231275761186429
-0.5573368117535906 -0.7963744029213126 -0.2348690882940211
-0.5054322032546927 -0.7830731492933051 -0.3624013393586882
-0.4150751386174604 -0.7564623258858657 -0.5054477013668592
0 0 0
0 0 0
0 0 0
0 0 0
0 0 0
-0.3799430925719329 0.7279788857670533 -0.5706925514532624
-0.4545719135954353 0.7848738458282633 -0.4211144992812939
-0.5128022271969254 0.811881277934159 -0.2790746608380438
-0.5541718865097269 0.8178224925461679 -0.1551125104168682
-0.5868765770627878 0.8081806958002015 -0.04919193258012363
-0.6155221793037364 0.7870694807983392 0.04067037227529903
-0.6424222803718247 0.7573582064615539 0.1170562291687302
-0.6687318057879924 0.7207483532936608 0.1825365255284726
-0.6949423472145233 0.6780788767467507 0.2392993333835946
-0.7211165158582905 0.6296395241618667 0.2890415889964922
-0.7470179501330325 0.5754092410457002 0.3329690488592787
-0.7721876163526131 0.5152411745321041 0.3718236372508434
-0.7959926025314337 0.44901947029093 0.4059276930869425
-0.8176681449209431 0.3767970080966266 0.4352502951991805
-0.8363688514654514 0.2989074586236812 0.4595013334882643
-0.8512384789804901 0.2160342064873734 0.4782491751486374
-0.8614973223816237 0.129221425177164 0.4910439764465854
-0.8665352433447991 0.03982671346702694 0.4975243762226976
-0.8659925788128201 -0.05057350196739796 0.4974928887329689
-0.8598122152949601 -0.1403099427583407 0.4909542487775451
-0.8482516661597567 -0.2277605731855616 0.4781152917020962
-0.8318519103946381 -0.3114859637173368 0.459346158773394
-0.8113689982868103 -0.3903393888533166 0.4351040221931722
-0.7876829855091619 -0.4635312760334535 0.405825418718654
-0.7617028069605903 -0.5306334443483576 0.3718023421219336
-0.7342813069631223 -0.5915225576619675 0.3330645973704989
-0.7061434193146926 -0.6462777781749315 0.2892861987648691
-0.67781925828099 -0.6950507291880202 0.2397197049860715
-0.6495667508261787 -0.7379147508160218 0.1831525504852422
-0.6212639891312213 -0.7746840163646254 0.1178801535371154
-0.5922482132324841 -0.804675490087045 0.04170622946399416
-0.5610614626369267 -0.8263843205994631 -0.04794778212884858
-0.5249765927071313 -0.8371316370583026 -0.1536561074142395
-0.4789895537331662 -0.8328689568054253 -0.277305442074879
-0.4148772002333856 -0.8078783942097876 -0.4185802299386843
-0.3344627491907262 -0.7528276267946439 -0.5669084879753743
0 0 0
0 0 0
0 0 0
0 0 0
-0.4065795682945937 0.7684363800586337 -0.4941645317581626
-0.4429443895567829 0.8279408978534307 -0.3439682215289999
-0.481673663547641 0.851741420946067 -0.2062208371852076
-0.5147037439534704 0.8529122058029606 -0.08729733760320396
-0.543258810473598 0.8394609375459746 0.01323628260668199
-0.5694934805813996 0.816115641939026 0.09814496705248864
-0.5949135403615495 0.7854785528513598 0.1705910973791416
-0.6203602573588385 0.7487824221851799 0.2334053026736328
-0.6461876162937298 0.7064113206281045 0.2888331882541967
-0.6723942862976653 0.6582595795673243 0.3384970452782453
-0.6987036774005077 0.6039780420477868 0.3834366908775534
-0.7246117921738193 0.5431566707868204 0.4241681053809002
-0.749420770123308 0.475478754135079 0.4607477223752065
-0.7722746442760048 0.4008616198775405 0.4928507233610636
-0.792211580752811 0.3195793131516503 0.51987486371881
-0.8082414522577022 0.2323484319528425 0.5410729719930717
-0.8194477186451339 0.1403546964825565 0.5557031541952722
-0.8251006447847068 0.04520600377560857 0.5631743452950427
-0.8247598970829451 -0.0511871357342718 0.5631616014067813
-0.8183428282360662 -0.1467864780702963 0.5556696368619704
-0.8061412023211778 -0.2396253580758783 0.5410323924564704
-0.7887818520164324 -0.3279948618134212 0.5198485938747178
-0.7671412997937279 -0.4105821620896718 0.4928656148734254
-0.742235245740369 -0.4865382313699199 0.4608333640223584
-0.7151064359269231 -0.5554695434821867 0.4243540639131241
-0.6867278510575082 -0.6173658747601853 0.3837502250989921
-0.6579261307046755 -0.6724866291432773 0.3389615614778256
-0.6293187989096166 -0.7212256603535762 0.2894674354508717
-0.6012515986561011 -0.7639607198159398 0.2342232560865657
-0.5737189157086399 -0.8008740157095382 0.1716024962504337
-0.5462495743352982 -0.8317089087237858 0.09935639731790967
-0.5177437901905793 -0.8554102340661365 0.014652616626751
-0.4862883918366985 -0.8695884893052771 -0.08567064393736509
-0.4492437973574818 -0.8697172994721291 -0.2043815782665751
-0.405123692319325 -0.8478812317135833 -0.3420120039259046
-0.3629638945521708 -0.7907267461635267 -0.4929588463078451
0 0 0
0 0 0
0 0 0
-0.2897257015487845 0.7595829578910087 -0.582316707594424
-0.3686070629167134 0.8272189771955938 -0.4240726316745621
-0.4103595443674333 0.8692259134279509 -0.27577410279411
-0.4422383176140154 0.8853278514106895 -0.1435961905847671
-0.469478944384904 0.8824216238620604 -0.03035784115974072
-0.4942838867839305 0.8668516286155812 0.06520500925760454
-0.518121702846688 0.8427215224877135 0.1461859657259825
-0.5419531384272479 0.8121963828411288 0.2159255229208492
-0.5663248899784288 0.7761266474282252 0.2773148862624283
-0.5914561821681674 0.7345561658449528 0.3325760421230265
-0.6172967989649247 0.6870728687776763 0.3832434408796455
-0.6435577252023837 0.6330490948113207 0.4302119220696934
-0.6697259376678186 0.5718244560614923 0.4737973827122084
-0.6950766259010833 0.5028683335661547 0.5138014433829116
-0.7186969535349716 0.4259379261109534 0.5495921870622344
-0.7395350048653585 0.341226230727067 0.5802177488172801
-0.7564830810157188 0.2494763046210896 0.6045617599299264
-0.7684945493718252 0.1520291058546784 0.6215330068136539
-0.7747195402194119 0.05077703119981983 0.6302629031640327
-0.7746323227493955 -0.05198563826458766 0.6302715747724142
-0.7681186021823331 -0.1537957870384915 0.6215630851898051
-0.7554984400426079 -0.2522913437870826 0.6046248299096669
-0.7374782988647562 -0.3454582821439159 0.5803312278360687
-0.715046371766712 -0.4318032523915276 0.5497768978843683
-0.6893394031951748 -0.5104252542485895 0.5140790279984028
-0.6615112502775573 -0.5809892411606997 0.4741881139502933
-0.6326243880232812 -0.6436266196515862 0.430733279598919
-0.6035714947126617 -0.6987953514610755 0.383909504371427
-0.5750217021713065 -0.7471252043435671 0.3333976170679623
-0.5473785743266177 -0.7892563980500187 0.2783002596212755
-0.5207340666508474 -0.825658240002104 0.2170817876881846
-0.494803268092241 -0.8563920749051454 0.1475206423687788
-0.4688299844266225 -0.8807643916416952 0.0667272966526222
-0.4414748730698421 -0.8968165051216309 -0.02863725876179258
-0.4107464367337578 -0.9006761542300828 -0.1416680271332538
-0.3739423397538256 -0.8861689398444487 -0.2736270026777322
-0.3258323529925375 -0.8462491158185192 -0.4215396917488555
-0.2405620763121749 -0.7801436198767496 -0.5774996275375218
0 0 0
0 0 0
-0.3179932040800985 0.789738743499918 -0.5245884474271644
-0.3460379924070284 0.8642371284555557 -0.3651737854909744
-0.3731550521064583 0.9016283506121656 -0.2186815594873312
-0.3972246815742235 0.9131817886347299 -0.09116783014929994
-0.4193504064945198 0.9076649452478065 0.01701716019719154
-0.4406538455225028 0.8911143097388992 0.108348859730016
-0.4619795535495295 0.8670996736596529 0.1863143795886408
-0.4838945017956622 0.8373535134676817 0.2543328618469425
-0.5067269652094447 0.8023925629760762 0.3152680726148921
-0.53059780095563 0.7619838599952574 0.371276946130213
-0.5554317626999787 0.7154623211908269 0.4238032844849461
-0.5809520921263581 0.6619535712244022 0.4736160218967125
-0.6066674809425058 0.6005545516313293 0.5208539124186041
-0.6318629392842237 0.5305082323558102 0.565075429798372
-0.6556084118246687 0.4513875357890575 0.6053320600125334
-0.6767998192382524 0.363279995778203 0.640288723425969
-0.6942436241751325 0.2669419096658613 0.6684069173461029
-0.7067855141850804 0.1638759090783938 0.6881852391339565
-0.7134674091160592 0.05628776696114111 0.6984238995193001
-0.713680253285596 -0.05309753696947512 0.6984562603613642
-0.707272068439541 -0.1613380930685607 0.6882849997858828
-0.6945787618498641 -0.2656295207615223 0.6685815591886402
-0.6763684780544078 -0.3636243416609167 0.6405489989423357
-0.6537177502808027 -0.453643900452639 0.6056899491901129
-0.6278557426421629 -0.534751503463974 0.5655422141399143
-0.6000144762433203 -0.6066993497431095 0.5214389008500818
-0.5713109724001674 -0.6697899140533751 0.4743260944198062
-0.5426700038032368 -0.7246981830214195 0.4246431566593854
-0.5147816569408334 -0.7722886918438838 0.3722499457720739
-0.48807970115718 -0.8134393761509391 0.316377285286868
-0.4627243266217195 -0.8488602987722403 0.2555824538593728
-0.4385740003922077 -0.8788728899065825 0.1877106538458247
-0.415136179287155 -0.9030968552421703 0.1099000577732545
-0.3915014613805229 -0.9199868371847566 0.01873032684451277
-0.366303729224329 -0.9262007402342967 -0.08929595033252977
-0.3378323833290597 -0.9159235339519214 -0.2166872417269417
-0.3047293507242098 -0.8804704027100495 -0.3631967686513799
-0.2702913891204665 -0.8081822831509492 -0.5232436929082342
0 0 0
0 0 0
-0.2991150908843654 0.8300521159225198 -0.4706842330669097
-0.3115705297615047 0.8974022610313309 -0.3123987626095687
-0.3289201468756996 0.9289379198630674 -0.1699584596886689
-0.3468485825178464 0.9367201654596432 -0.04744884009771684
-0.3646913455506045 0.929435437482346 0.05612477200389237
-0.3827353394808603 0.9125791308439738 0.1439200815054207
-0.4013842875743256 0.8891859123082221 0.219633938727705
-0.4209561815917927 0.8605861529424659 0.2866833907699288
-0.4416490623137684 0.8270037076788196 0.3478663151885421
-0.4635341343143378 0.7879702696913032 0.4052640625667067
-0.4865407681218537 0.7426020040809179 0.4602394425626736
-0.5104300148864138 0.6897993363199036 0.5134569850685404
-0.5347628293493066 0.6284224786928734 0.564901676949032
-0.5588735625952148 0.5574788173887109 0.613903664425467
-0.5818630351603592 0.47633699112134 0.659195327049155
-0.6026278827268662 0.3849560518417545 0.6990339570511165
-0.6199403378483983 0.2840893557904774 0.7314145305057622
-0.6325820299433774 0.1754007441373303 0.7543703031991558
-0.6395165324089781 0.06142895692045292 0.7663191815603083
-0.6400641580767742 -0.05463386932942148 0.7663765483543746
-0.6340301030989992 -0.1693244776071231 0.7545429408902761
-0.6217448160121823 -0.2793616625384594 0.7317037961263593
-0.6040038275761842 -0.3820487540755492 0.699441295451333
-0.5819288072967632 -0.4755277865795213 0.6597212952671354
-0.5567936928386022 -0.5588492568674787 0.6145472249663312
-0.5298610781993072 -0.6318827965120658 0.5656601181642191
-0.5022588889832645 -0.6951289683071668 0.5143264778888114
-0.4749067090708838 -0.7494954609611298 0.4612159707535351
-0.4484843838185185 -0.7960816048394751 0.4063444793609587
-0.4234267823078988 -0.835987036586308 0.3490493298718981
-0.3999266662569372 -0.8701332128935696 0.2879702301213189
-0.3779299340996836 -0.8990637148253384 0.2210280561283354
-0.3571137547542281 -0.922670817165647 0.1454246516798772
-0.3368553619843505 -0.9397845821654529 0.05773564086850433
-0.3162508171710702 -0.9475713579100103 -0.04575961436909761
-0.2943948051849564 -0.9407510420806461 -0.1682830220321983
-0.2715668143896572 -0.9107810055632676 -0.3110135450867308
-0.2530628304421636 -0.8453622346640447 -0.470448611489515
0 0 0
0 0 0
-0.2496847140016056 0.8704716061901452 -0.4241894935175604
-0.261791416401025 0.9273041726880182 -0.2675298592944992
-0.2764216724930221 0.9522492287045412 -0.1296628914060072
-0.2910955170729981 0.9566197948694271 -0.01191503268893065
-0.305782397397142 0.948053700432369 0.08770009429041367
-0.3208527096872866 0.9312526280836561 0.1726907101543362
-0.3366463495379 0.9087070452671432 0.2468212738494468
-0.3534098799374241 0.8813855243468985 0.313466129325574
-0.3713010666771613 0.8492605413543642 0.3753558988252262
-0.3903885638045279 0.8116635084582641 0.4345102050445526
-0.4106341757955161 0.767519817751117 0.4922325700601582
-0.4318603398352285 0.7155246202506849 0.5491094287048018
-0.4537098843740298 0.6543116147433273 0.6049988856463152
-0.4756083847416613 0.5826521040371117 0.6590244229348059
-0.4967437775027767 0.4997002611761565 0.7096092364764937
-0.5160815148787309 0.4052707615008138 0.754596236323124
-0.532432675648664 0.300098899705336 0.7914897954473263
-0.5445826837599647 0.1860024920707019 0.8178219693137877
-0.5514683562057969 0.06585838465471215 0.8315920425751726
-0.5523657982484652 -0.05665792159864158 0.8316741578559822
-0.5470343670518414 -0.1775425228387532 0.8180660449182824
-0.535767802976754 -0.2930257877201999 0.791889354028969
-0.5193357091204056 -0.4000650545607758 0.7551412936343028
-0.4988387370009429 -0.4966408781938591 0.7102870916567018
-0.4755264441804903 -0.5818172533091822 0.6598206458097664
-0.4506280566502004 -0.6556075011510828 0.6058986375575507
-0.425228937243125 -0.7187290988852206 0.5500989305086137
-0.4002020624852682 -0.7723296017392111 0.4933004109666733
-0.3761854200471834 -0.8177378046871561 0.4356482669876629
-0.3535871134664181 -0.8562586472676131 0.3765597989296292
-0.3325985770146664 -0.888999483964426 0.3147349743495355
-0.3131989154354199 -0.9166923949884065 0.2481561853762571
-0.29513840972371 -0.9394602898602104 0.1740910189571201
-0.2779001485983342 -0.956463707269868 0.08915539290813299
-0.2606708211138044 -0.9653712896082646 -0.01044012547484551
-0.2424528443483957 -0.9616476848131231 -0.1282589122085949
-0.2227885179095473 -0.9377569458510746 -0.26641544023523
-0.2048672460027866 -0.8822120921202935 -0.4239472090154242
0 0 0
-0.08156689096894666 0.8284544071104825 -0.5540849552522417
-0.1680539180957391 0.9064375263299465 -0.3874646970673812
-0.2001950715856227 0.9515415276090402 -0.233432333981993
-0.2178551050826797 0.9709427736023832 -0.09904182742016156
-0.2312239895754357 0.972781171226699 0.0152400640297151
-0.2434144355085823 0.963432830080162 0.1120115820340351
-0.2555845286238292 0.9469045213419185 0.195059929740494
-0.2682578291011231 0.9252522380119981 0.2682275772170732
-0.2817162354786156 0.8991614990408892 0.3348799207332351
-0.2961289382577681 0.8684063216277179 0.3977161204720558