# OOMMF: rectangular mesh v1.0
# Segment count: 1
# Begin: Segment
# Begin: Header
# Title: 
# Desc: time = 2.56e-09
# Desc: stepsize = 8.877239609971296e-14
# Desc: step = 16382
# meshunit: m
# valueunit: (none)
# valuemultiplier: 384000.0000000001
# xmin: 0
# ymin: 0
# zmin: 0
# xmax: 9.357999999999999e-08
# ymax: 9.357999999999999e-08
# zmax: 2.3395e-08
# ValueRangeMaxMag: 1
# ValueRangeMinMag: 0
# meshtype: rectangular
# xbase: 1.16975e-09
# ybase: 1.16975e-09
# zbase: 1.16975e-09
# xstepsize: 2.3395e-09
# ystepsize: 2.3395e-09
# zstepsize: 2.3395e-09
# xnodes: 40
# ynodes: 40
# znodes: 10
# End: Header
# Begin: Data Text
0 0 0
0 0 0
0 0 0
0 0 0
0 0 0
0 0 0
0 0 0
0 0 0
0 0 0
0 0 0
0 0 0
0 0 0
0 0 0
0 0 0
0 0 0
0 0 0
-0.8359629039650349 0.02994816541984385 -0.5479681839142955
-0.8458086100102802 0.04858661734686273 -0.531269362797505
-0.8563580039646281 0.02940164202573561 -0.5155448695234083
-0.8619109083601248 -0.005498384630361807 -0.5070299338463958
-0.8606688596306247 -0.04491316760112257 -0.5071803638136568
-0.8527054058307711 -0.08018532094499295 -0.5162013223267913
-0.8400232624311299 -0.1000085999242962 -0.5332534092865631
-0.8287696557971169 -0.08169531254101391 -0.5535943763612071
0 0 0
0 0 0
0 0 0
0 0 0
0 0 0
0 0 0
0 0 0
0 0 0
0 0 0
0 0 0
0 0 0
0 0 0
0 0 0
0 0 0
0 0 0
0 0 0
0 0 0
0 0 0
0 0 0
0 0 0
0 0 0
0 0 0
0 0 0
0 0 0
0 0 0
0 0 0
0 0 0
0 0 0
-0.7800175355031227 0.2408366588874632 -0.5775554934753526
-0.8080686616169217 0.2705784991114301 -0.5232707845191076
-0.8452675841153992 0.2533604022538184 -0.4704585186958566
-0.8821409681966781 0.2051739642945387 -0.4239468794609653
-0.9144734589844103 0.1233069544201587 -0.3854006847486295
-0.9278300556312524 0.08263088924484312 -0.3637355138145205
-0.9362044988972466 0.04363276378909521 -0.3487367462265487
-0.9401034265876566 0.0006882707670842818 -0.3408886527907569
-0.9390024370215931 -0.04410041046214433 -0.3410712199300593
-0.9329181462623605 -0.08733702112388041 -0.3493364812263488
-0.9223740294678561 -0.1268791340529339 -0.3648668731266345
-0.9066524460381143 -0.1681513824034084 -0.38691918366621
-0.8706922986788318 -0.2498132455051285 -0.4236605520833467
-0.8302788167758134 -0.2992840521848758 -0.4701767141417739
-0.7899693335356631 -0.3182119766610216 -0.5241083761806382
-0.7598142215874443 -0.290006301392241 -0.5818751531267324
0 0 0
0 0 0
0 0 0
0 0 0
0 0 0
0 0 0
0 0 0
0 0 0
0 0 0
0 0 0
0 0 0
0 0 0
0 0 0
0 0 0
0 0 0
0 0 0
0 0 0
0 0 0
0 0 0
0 0 0
0 0 0
0 0 0
-0.7526610456935158 0.3346981314816699 -0.566990750434451
-0.7905726689145225 0.3632171280301938 -0.4930194449216644
-0.8461175142251409 0.3261038850462551 -0.4215938902299308
-0.880355350378173 0.3050166754548368 -0.3632344762753153
-0.9106839781613743 0.2718673713617224 -0.3110350853345015
-0.9376806836317413 0.2231005447173648 -0.2664227514510067
-0.9591098626802349 0.1620427135118748 -0.2320569548779112
-0.9716296961103369 0.1086200947164678 -0.2100890493584076
-0.978852704114216 0.05798172226876669 -0.1961772248020502
-0.9818987208183753 0.007096279391057284 -0.189273730015663
-0.9808978797692814 -0.04424302376610363 -0.1894251945021043
-0.9758340202082584 -0.09532046969496792 -0.1966264810785122
-0.9665147324669948 -0.1463375249049615 -0.2107951629638181
-0.9516634816630627 -0.2002809621221972 -0.2328608036582027
-0.9274300063231357 -0.2619150032618053 -0.2669721229601265
-0.8975334379172206 -0.311733959962272 -0.3118584070162853
-0.8643733134341886 -0.3462450238988503 -0.3646548483814339
-0.8273589683623439 -0.3688596244615014 -0.4235796441196363
-0.7685806332639898 -0.4068702507175329 -0.4937007284302664
-0.7281249278221732 -0.3802896302144417 -0.5702752726844449
0 0 0
0 0 0
0 0 0
0 0 0
0 0 0
0 0 0
0 0 0
0 0 0
0 0 0
0 0 0
0 0 0
0 0 0
0 0 0
0 0 0
0 0 0
0 0 0
0 0 0
0 0 0
0 0 0
-0.756280221205112 0.4152856574594906 -0.5055472774354394
-0.8077125104446945 0.415110387038799 -0.4186691618015677
-0.8477293350150558 0.4053783568922609 -0.3420867760061203
-0.8860336308577618 0.3742175827388526 -0.2736888849736157
-0.9158040830453357 0.3381263227315742 -0.216733641489998
-0.9406484843127789 0.2947051848987643 -0.168313050456156
-0.961563954661365 0.242777536321989 -0.1282724793298277
-0.977947492517135 0.1845651273661819 -0.09774669119593217
-0.9889685597985655 0.1264815349689101 -0.07709480554394742
-0.9955281350639031 0.06922936342486863 -0.06427307006806199
-0.9982362230547484 0.01217045719644962 -0.05810613524422116
-0.9972906545708571 -0.04495000141260488 -0.05823098555441121
-0.9926709575091911 -0.1021101798910219 -0.06463653208835184
-0.9841282912383361 -0.1595628209166108 -0.07766088182248512
-0.9709838164505087 -0.2179375669888578 -0.09845631054524483
-0.9522917592053021 -0.2765430892397297 -0.1290903758744909
-0.9289830421024081 -0.3290799629781656 -0.1694015509151088
-0.9016765702495346 -0.3733536962086422 -0.2181430269121175
-0.8692776376456099 -0.4105969790332066 -0.2752571697487131
-0.8279974342675321 -0.4432198053805563 -0.3434770050015072
-0.7849353999910925 -0.4548898460055805 -0.4206562086096463
-0.7306732055562007 -0.456024632509341 -0.5080927092834004
0 0 0
0 0 0
0 0 0
0 0 0
0 0 0
0 0 0
0 0 0
0 0 0
0 0 0
0 0 0
0 0 0
0 0 0
0 0 0
0 0 0
0 0 0
0 0 0
-0.6508260540462679 0.5045198286262291 -0.5673492662351159
-0.7024525747262657 0.5402565312598809 -0.4633392501089037
-0.7828895628456546 0.505641932112068 -0.3625054053077201
-0.8327011114829603 0.4792252196881155 -0.277402321096849
-0.869562745680469 0.4495043136811365 -0.2044663867404466
-0.900535353210271 0.4110306298577671 -0.1417388406089844
-0.926074275108254 0.3666099310223941 -0.08935096786536316
-0.9474606191756236 0.3165769369918423 -0.04579757718708349
-0.9652782238852949 0.2610144377986726 -0.01046010293892667
-0.9794020965377445 0.2012417548163606 0.01653146744552192
-0.9895414310001485 0.1398450510329761 0.03537114693874414
-0.9958352928214291 0.07802978140701386 0.04715318424912359
-0.9984766670819489 0.01608036100221595 0.05278036834809731
-0.9975551311899227 -0.04592938734562487 0.05267116492646717
-0.9930559223811193 -0.1079199332423963 0.04683185916382733
-0.984860205435563 -0.1698103090450312 0.03485447878610802
-0.9727516676000088 -0.2313079338318703 0.01583770588919268
-0.9565893157664677 -0.2912189429705198 -0.01133173493221119
-0.9366892266945219 -0.3470091608863577 -0.04688213791375029
-0.91315110768467 -0.3974205890723526 -0.09061969937957227
-0.8852985562132136 -0.4424679009412238 -0.1430685954480101
-0.8517153242743457 -0.4819356277066292 -0.2057159622957422
-0.8118600978695085 -0.5130964121542578 -0.278595142315403
-0.7584608712690213 -0.5411088805161397 -0.3632331017134957
-0.6735467033923196 -0.5769568997783371 -0.4620125259638619
-0.6181346225180867 -0.543659911427663 -0.5677530177382484
0 0 0
0 0 0
0 0 0
0 0 0
0 0 0
0 0 0
0 0 0
0 0 0
0 0 0
0 0 0
0 0 0
0 0 0
0 0 0
-0.62928776275589 0.5503471553660604 -0.5487393919030887
-0.6926675900520387 0.5743053023927264 -0.4363313297656948
-0.744204499730667 0.5799984236186218 -0.3313027183416117
-0.7961904075488553 0.5575505515278785 -0.2349855685316568
-0.8369599551509521 0.5252188503576324 -0.153763430966933
-0.8694279241808283 0.4865586548405587 -0.0857657277376091
-0.8966674632977826 0.441772271886651 -0.02871793960621562
-0.9198505616332447 0.3918246145426295 0.01866589675112097
-0.9396630166134579 0.3372022900343823 0.05768908739496895
-0.9563592297828135 0.2782681927937613 0.08912820254283817
-0.9698298134321348 0.2158612476930691 0.1132874870521086
-0.9798333298703011 0.1513080144831634 0.1305087369812462
-0.9862363442622204 0.08562575048392969 0.141442935880003
-0.9889913537403613 0.01940392809647205 0.1466955684444291
-0.9880798191950144 -0.04698755970635225 0.1465961804836309
-0.9834920900139057 -0.1132282614053849 0.1411476875446179
-0.9752309749057817 -0.1789355488319419 0.1300254396205986
-0.963338674323321 -0.2435035902260991 0.112625929962803
-0.9479564621477387 -0.3059120804405355 0.08829691338255134
-0.9293351488575833 -0.3648576399930739 0.05670170752753229
-0.9075622972276732 -0.4195496145261131 0.01757263787306653
-0.8823180214432906 -0.4697077699598549 -0.02982481979386658
-0.8528097876323379 -0.5149596235000261 -0.08678739702974111
-0.8177237948105397 -0.5544533753557913 -0.15462616194299
-0.773776742226929 -0.5880434267424788 -0.2355302134623985
-0.717898581546346 -0.6122389092017304 -0.3313384141225095
-0.6622072860026147 -0.6089729148314803 -0.4366159632522633
-0.5950911656784907 -0.5868681962695919 -0.5490466507854235
0 0 0
0 0 0
0 0 0
0 0 0
0 0 0
0 0 0
0 0 0
0 0 0
0 0 0
0 0 0
0 0 0
-0.586477213406877 0.5952985072997362 -0.5492396247187653
-0.6552688908041472 0.6233208090633234 -0.4267245595614883
-0.7087016412646157 0.6319248337256066 -0.31370844456231
-0.752739438135692 0.6231202652413217 -0.2123781375771695
-0.7923154605834458 0.5975314440838362 -0.1232573902511601
-0.8262065778432662 0.5613129580864951 -0.04806718020340928
-0.8552407936168418 0.5180266450884172 0.01454578674646163
-0.8806042455429758 0.4691438228785936 0.06663509725771283
-0.9029479188504712 0.4154799899476738 0.109824559169083
-0.922535710207492 0.3574856969505026 0.145367946493617
-0.9393420460623827 0.2955356409700846 0.1740551792269832
-0.9531310131436289 0.2302290756840453 0.1963054876804753
-0.9635795491369771 0.1624294518991971 0.2124408756353305
-0.9704060648296212 0.09299800584684874 0.222852956566428
-0.9734193212626953 0.02265504134610587 0.2279069417417542
-0.9725208309085324 -0.04799209905710104 0.2278156971700383
-0.9677017332823825 -0.1183676537788874 0.2225813423024351
-0.9590472030634962 -0.1878465054018413 0.2119956431259864
-0.9467463224612296 -0.2556820018750809 0.1956990414470348
-0.9310898416536967 -0.3209925217029286 0.173307552576593
-0.9124114886379427 -0.3829119827117995 0.1445118988084072
-0.8909424796095281 -0.4408618780994134 0.1089141977240945
-0.8666771832960976 -0.4945184009684362 0.06574352483373022
-0.8392862499377371 -0.5435159332703294 0.01374848888907127
-0.8080086798759497 -0.5871539749338841 -0.04870506097382882
-0.7714915687309699 -0.6241043206846606 -0.1236711618760214
-0.7287272810053461 -0.6509849372177129 -0.212544492834336
-0.6808820432025936 -0.6617833995394333 -0.3137552793791556
-0.623066313183512 -0.655636912100925 -0.4265309002483521
-0.5500852551757434 -0.6296617834376039 -0.5485729217856208
0 0 0
0 0 0
0 0 0
0 0 0
0 0 0
0 0 0
0 0 0
0 0 0
0 0 0
-0.543259144690423 0.6182838571253951 -0.5679740960011943
-0.6085933492797405 0.6624076432418173 -0.4368412175920315
-0.6614194781544179 0.6811339025506733 -0.3139759237808327
-0.70476481558177 0.6793379875183488 -0.2044662647786013
-0.7416845490689863 0.6618032008479481 -0.1091812851167483
-0.774704650258323 0.6317300525635215 -0.02738330798533245
-0.8044894110621098 0.5925103129019853 0.04157302723799556
-0.8315280865501877 0.5465467330602458 0.09923562797380546
-0.8562181980012424 0.4951357102231106 0.1474144696878866
-0.8787085963271554 0.4389411735357401 0.1876215577054711
-0.8989123876708759 0.3783302070910461 0.2209587601664406
-0.9165578635333692 0.3136293273089079 0.2481095077720871
-0.9312475082514072 0.2453210007807066 0.2694358642636448
-0.94253788251273 0.1740987415270367 0.2851525350178762
-0.9500277250243352 0.1007734448176243 0.2954522541878379
-0.9534199272534968 0.02617730899635656 0.3005082208686572
-0.9525525721596292 -0.04886830186981322 0.3004255088111443
-0.9474125200728034 -0.1235411423947837 0.2952068816018547
-0.9381404920337416 -0.1969969607906377 0.2847536033941286
-0.9250253553257087 -0.2683662918991171 0.2689007723619696
-0.9084748507552017 -0.3367996242905621 0.2474660757013973
-0.8889480351916497 -0.4015752058119231 0.2202470086199057
-0.8668568736332499 -0.4622009412758402 0.186894222806685
-0.8424755811363629 -0.5183670567837987 0.1467327149283666
-0.815869164092852 -0.5697575830938839 0.09866004048978733
-0.7868255894001154 -0.6158016539452122 0.04115598211076703
-0.7548240476120068 -0.6553463505472895 -0.02760105017885045
-0.7191891653721443 -0.6861824143757657 -0.1091816770926481
-0.679034818296586 -0.7051177817065245 -0.2042562837765144
-0.6316230673853365 -0.7090524439488466 -0.3135234161540506
-0.5740014113566397 -0.6930194116146722 -0.4361725288069373
-0.5042076534099952 -0.6511819886743182 -0.5672183529020778
0 0 0
0 0 0
0 0 0
0 0 0
0 0 0
0 0 0
0 0 0
0 0 0
-0.5765783601732878 0.6736903750638423 -0.462275538100624
-0.6118695230992423 0.7180957871305329 -0.3315933159876505
-0.6506229895981793 0.7289786177101144 -0.2127907430500164
-0.6858242929992069 0.7194950493492343 -0.1094162377989682
-0.7175254746125482 0.6962157192833477 -0.02099679748932325
-0.7468619451532821 0.6627702992762393 0.05415501157916734
-0.7744877044957243 0.621536998523321 0.1177308585357493
-0.8006798177828944 0.5740310237507541 0.1714649036007423
-0.8254684745186414 0.521086223732961 0.2169583946557254
-0.8486783143987336 0.4631165621714147 0.2554763560720521
-0.869963195659777 0.4003576749671851 0.2878849949064692
-0.8888461523340841 0.333065368418475 0.3146743997232045
-0.9047677818634453 0.2616613021261092 0.3360485439212164
-0.9171506657517198 0.1867924767068918 0.3520557156997768
-0.9254746934041892 0.1093006597480057 0.3626981632805334
-0.9293448624145485 0.03015632910725824 0.3679792419667968
-0.9285391628547739 -0.04959799043621253 0.3679063228454287
-0.9230351544677675 -0.1288874808612024 0.3624832698124389
-0.9130163719365896 -0.2066408127154704 0.351711073320185
-0.8988563087715894 -0.2818379353159771 0.33559605837724
-0.8810752951684722 -0.353579298686781 0.3141464686797439
-0.8602706213052077 -0.4211643742208597 0.2873239078223448
-0.8370336821911331 -0.4841325269035504 0.2549319738117129
-0.8118743423803819 -0.542212891157184 0.2164837934982422
-0.7851571877025638 -0.5951884497389682 0.1711107825250193
-0.7570408298895689 -0.6427078416487895 0.1175406830134443
-0.7274182975788094 -0.6840534777042747 0.0541614252788248
-0.6958541635952764 -0.7178825258729221 -0.02077647836933424
-0.6614485150207979 -0.7420296204395774 -0.108985798923887
-0.6227717196864972 -0.7530761132611189 -0.2122068632119353
-0.5796536222008059 -0.7445376334338186 -0.331157652290044
-0.5399118559643388 -0.702789612698326 -0.4632299084390814
0 0 0
0 0 0
0 0 0
0 0 0
0 0 0
0 0 0
0 0 0
-0.4556220532679852 0.7307476360220834 -0.508346768479944
-0.5407334036792242 0.7585957779071149 -0.3635104288558725
-0.5876778508975091 0.7739699380754761 -0.2358077151408076
-0.6237410062672403 0.771741968917844 -0.1239414801894007
-0.6549804164898126 0.7551320594324806 -0.02786084765564955
-0.6836819473661582 0.7277858594284013 0.05391416939618312
-0.7110648321881903 0.6921923865512909 0.1235172231942132
-0.7377070406655366 0.6498500497112046 0.1829842480729983
-0.7637519017991897 0.6015783160950822 0.2340652945276722
-0.7890492908685561 0.5477505407742752 0.2781556428716076
-0.813237965032245 0.488497696416286 0.3162499214643298
-0.8357962989456847 0.4238899904790187 0.3489438674635118
-0.8560842399208636 0.3540926441453317 0.3764813056730499
-0.8733915308555807 0.2794849446400841 0.3988425748955015
-0.8870013663987085 0.2007218638263117 0.4158597232107424
-0.896267556278407 0.118729782945871 0.4273262292492221
-0.9006921216626357 0.03465453421623705 0.4330736256493982
-0.8999883911027342 -0.05021317151343822 0.4330121629779857
-0.8941195805440008 -0.1345207396558467 0.4271467502981424
-0.8833074474343269 -0.2169414294665271 0.4155771522690742
-0.8680085074688544 -0.2962655793709185 0.3984820415548301
-0.8488592808745343 -0.3714884586019875 0.3760774473412193
-0.8265990639899048 -0.4418763676863075 0.3485387540738735
-0.8019859441100309 -0.5069834276603491 0.3158897743322909
-0.775720548571148 -0.5666008229993413 0.2778869156706483
-0.7483800549561708 -0.6206477831393219 0.2339308073513268
-0.7203532171873704 -0.6690253474883148 0.1830200177738605
-0.6917621086139837 -0.7114429917619864 0.1237499679138901
-0.6623510099862587 -0.7472190143003886 0.05435884691692736
-0.6313226854964735 -0.7750429408190604 -0.02720490147129332
-0.5971352879894438 -0.7926382138135087 -0.1231020302037871
-0.5571630467568213 -0.7965011028110046 -0.234851724604077
-0.5052581295324565 -0.7831905747771494 -0.3623903228862513
-0.4148956495588123 -0.756569514333167 -0.5054346347044752
0 0 0
0 0 0
0 0 0
0 0 0
0 0 0
-0.3798849061301451 0.7281288633998456 -0.5705399340787106
-0.4545069355679965 0.785001486096062 -0.4209466858731197
-0.5127288438814283 0.8119886895292378 -0.2788969356744616
-0.5540904485156526 0.8179127355741337 -0.154927505141468
-0.5867877166953093 0.8082568477308095 -0.04900044522001769
-0.6154266385306845 0.7871339053036622 0.04086890882109592
-0.6423208455052256 0.7574122117144571 0.1172632635366516
-0.6686252714871974 0.7207920992629073 0.1827539218972944
-0.6948314809558531 0.6781114104666196 0.2395289712491317
-0.7210019994918967 0.6296588783748258 0.2892850041264546
-0.7469002846005827 0.5754125978741732 0.3332271103485779
-0.772067010640028 0.5152251055188811 0.3720962533060883
-0.7958688604585638 0.4489802726479901 0.4062135789524069
-0.8175405890142013 0.3767311344547259 0.4355468260092911
-0.8362363061716601 0.2988120210621563 0.4598045414185538
-0.8510993502110769 0.2159074950054522 0.4785539151138075
-0.8613497763935996 0.1290633554336991 0.4913442917047986
-0.866377483573609 0.039639100228894 0.4978140191775484
-0.8658231682330302 -0.05078692918617043 0.4977659381423728
-0.8596303867405627 -0.1405438140563606 0.4912056947173569
-0.8480575364204566 -0.2280084037932467 0.478341491740076
-0.8316465545041644 -0.3117408223229728 0.4595450664284715
-0.8111543592573484 -0.3905945744638197 0.4352751817611794
-0.7874616584488701 -0.4637808760123669 0.405969747047925
-0.7614777424037606 -0.530872706013587 0.3719217899417608
-0.7340555034521242 -0.5917480547551626 0.3331617588276438
-0.7059196394882793 -0.64648740761631 0.289363947958761
-0.6775998045796953 -0.6952435774548309 0.2397808850625229
-0.6493532980490085 -0.7380908801216793 0.1831997461627067
-0.6210574775882725 -0.7748441993194009 0.1179155473750967
-0.5920487750603635 -0.8048209270046998 0.04173156365173051
-0.560868365024724 -0.8265163546639722 -0.04793112336959742
-0.5247881599360916 -0.8372514800214488 -0.153646823568807
-0.4788030322737564 -0.8329774505872712 -0.2773016824662015
-0.4146887049769561 -0.807976047993712 -0.4185785276778987
-0.3342689610759932 -0.7529158953020733 -0.5669055620318548
0 0 0
0 0 0
0 0 0
0 0 0
-0.4064978211952928 0.7685769664997393 -0.4940131252603904
-0.4428569808533141 0.828057241775761 -0.3438006673236773
-0.4815784152832668 0.851838024852999 -0.2060441927058327
-0.5146002481298763 0.8529933853663463 -0.08711411565257011
-0.5431472230272265 0.8395301265895386 0.01342611881241396
-0.5693741600547753 0.8161750676749507 0.09834289383432142
-0.5947869504948632 0.7855291670517501 0.1707993303031499
-0.6202269332078282 0.7488239417171714 0.2336263162290807
-0.6460481355986355 0.7064423017967547 0.2890693354917289
-0.6722492086622865 0.6582775191862084 0.3387502165120786
-0.6985534536241563 0.603979524687426 0.3837079699304069
-0.7244566419440032 0.5431376049594726 0.4244574372326461
-0.7492605606288142 0.4754347263557635 0.4610536121333557
-0.7721087910572541 0.4007883845924766 0.4931700371553998
-0.7920390211528627 0.319473391914536 0.5202027881796059
-0.8080607154530924 0.2322077541204727 0.5414032130194301
-0.819257123225942 0.140179161007442 0.5560283885403723
-0.8248985994492855 0.04499782313535493 0.563486908933727
-0.8245452645145863 -0.05142342808062879 0.5634542907911935
-0.8181152563084461 -0.1470444004365448 0.5559364817095764
-0.8059013457968802 -0.239897170708638 0.5412692198238945
-0.7885314120033008 -0.3282724248070316 0.5200532928416011
-0.7668828849802758 -0.4108577697911515 0.4930380651902749
-0.7419720856600591 -0.4868052707370273 0.4609751104820206
-0.7148420308775382 -0.5557228885725601 0.4244678338902096
-0.6864656178224838 -0.6176020201106545 0.3838394199438532
-0.6576691079180661 -0.6727036072676964 0.3390297940584037
-0.6290694232801977 -0.721422821761281 0.2895181737575553
-0.6010115646626457 -0.7641384361631927 0.2342595772211424
-0.5734890907682787 -0.8010333635265903 0.171626959674318
-0.5460299564783579 -0.8318513609943984 0.09937102112793864
-0.5175334734552693 -0.8555373859193205 0.01465896134311793
-0.4860855404749168 -0.8697018325650325 -0.0856712890893542
-0.4490456649201407 -0.8698181196083002 -0.2043879390216286
-0.4049269112242207 -0.8479708440679338 -0.3420228708392584
-0.3627655649383104 -0.7908075353733561 -0.4929752396334995
0 0 0
0 0 0
0 0 0
-0.2896311179939122 0.759728272668349 -0.582174172561754
-0.3685062086576784 0.8273436459405988 -0.4239170504974534
-0.4102516156436734 0.8693296004374971 -0.2756077968144895
-0.4421221298375979 0.8854140342882652 -0.1434224884501889
-0.4693538143927335 0.8824943599715623 -0.03017783182028784
-0.4941494807161158 0.8669141505288396 0.06539224970019897
-0.5179779096764796 0.8427757809045271 0.1463826089668736
-0.5418000171011699 0.8122429923472652 0.2161343629595537
-0.5661626483336748 0.7761649457389918 0.2775388849112634
-0.5912851435178568 0.7345842905508337 0.332817966959411
-0.6171173482265863 0.6870878406630835 0.3835055119952344
-0.6433702167468903 0.6330469495023906 0.430495440078959
-0.6695305823433402 0.5718004724647839 0.4741023296673801
-0.6948733631249372 0.5028174135682948 0.5141261108248925
-0.7184853537040394 0.42585514754703 0.5499328957431791
-0.7393142305053103 0.3411075567555905 0.5805687756817206
-0.7562519616770647 0.2493193599157296 0.6049155538013566
-0.768251780052544 0.1518338692286772 0.6218807591501332
-0.7744640043849569 0.0505462548462235 0.6305954186584595
-0.774363465585806 -0.05224644198494108 0.6305803140487769
-0.7678367706138902 -0.1540788466742905 0.6218411394405746
-0.7552050735364696 -0.2525875276620086 0.6048676200412525
-0.7371759224957753 -0.3457581779979054 0.5805367702739171
-0.7147383789021082 -0.4320981797853392 0.5499456452692234
-0.6890297036539439 -0.5107080097989838 0.5142133761481893
-0.6612038591145462 -0.5812544950859392 0.4742917547611608
-0.6323230523999512 -0.643870976703129 0.4308105416107723
-0.6032793967098578 -0.6990171675423806 0.3839648017545577
-0.5747412691940585 -0.7473242566587084 0.3334350444909945
-0.5471113722336479 -0.7894335055481017 0.2783233491654077
-0.5204807630228052 -0.8258148895621178 0.2170933981048376
-0.4945636220987357 -0.8565300924154921 0.1475229625627395
-0.4686028521667202 -0.880885662600903 0.066721933165808
-0.4412582129384224 -0.8969227490486515 -0.02864911435627352
-0.4105373567617276 -0.9007687489805282 -0.1416853540883736
-0.3737372422890661 -0.8862487960132991 -0.2736485799180057
-0.3256270853008583 -0.8463164629922514 -0.4215630982270062
-0.2403510641572063 -0.7801969712171778 -0.5775154128350519
0 0 0
0 0 0
-0.3178770447419498 0.789875370133062 -0.5244531285856557
-0.3459176902116083 0.86434968182316 -0.3650213406512935
-0.3730276872713278 0.9017204217208129 -0.2185191652479103
-0.3970884431089256 0.9132579098737953 -0.09099867253029534
-0.4192040707316704 0.9077292306278641 0.01719275852625665
-0.4404965343796652 0.8911697397401956 0.108532475190128
-0.4618106396539622 0.8671478765193461 0.186508695106654
-0.4837135816554788 0.8373947710464893 0.2545410936293501
-0.5065338409940154 0.8024258741190126 0.3154935569424323
-0.5303924579670586 0.7620069958284249 0.3715227837430704
-0.5552143188457381 0.7154718855927542 0.4240719762905956
-0.5807227274805034 0.6619451093289401 0.4739090482604255
-0.606426336787951 0.6005227761205626 0.5211712707070478
-0.6316100158433815 0.530447427915393 0.5654151696800034
-0.6553434784499137 0.4512921844869036 0.605689928489987
-0.6765223926802293 0.3631456014808794 0.640658040086369
-0.6939530407171074 0.2667659210916043 0.6687788278823039
-0.7064811357666767 0.1636585466041783 0.6885494063095504
-0.7131489327150692 0.05603251147733737 0.6987696025335529
-0.7133480738229021 -0.05338400091234262 0.6987736929934797
-0.7069275725746708 -0.1616465472112892 0.6885664825623971
-0.6942244625754292 -0.2659493599561306 0.6688223482366454
-0.67600791616186 -0.3639449056733041 0.6407475344634181
-0.6533551979864215 -0.453955659771405 0.6058475420645297
-0.6274957744517634 -0.5350468710172449 0.5656623541122716
-0.599661529125454 -0.6069730336436154 0.5215264009773507
-0.5709689661240545 -0.6700388726213119 0.4743862865846667
-0.5423420846544438 -0.7249213054174496 0.4246812500741378
-0.5144700530847934 -0.7724863508513206 0.3722706034960863
-0.487785681348869 -0.813612957216708 0.3163843942423559
-0.4624482102413634 -0.8490117780442106 0.2555790554540169
-0.4383151987519966 -0.8790044819041404 0.1876989806456897
-0.4148932309951174 -0.9032107341700013 0.1098816479423161
-0.3912720705137459 -0.9200849119259028 0.01870619368523508
-0.366084813817135 -0.9262844803487648 -0.08932508358513908
-0.3376201789190475 -0.9159938771320518 -0.2167206308667022
-0.3045195861906164 -0.8805278996531988 -0.3632333128426157
-0.2700797403667604 -0.8082279741064233 -0.5232824053178641
0 0 0
0 0 0
-0.2989815349145716 0.8301753780971991 -0.470551679819867
-0.3114328469910635 0.8975016861131893 -0.312250388693149
-0.3287748255151871 0.9290181011353026 -0.1698013011446458
-0.3466933169671199 0.9367859060520055 -0.04728541204916134
-0.3645243927691541 0.9294906455551407 0.05629482126951759
-0.3825552802280258 0.9126264214802733 0.1440988285371088
-0.401189961105872 0.8892265394146321 0.2198244224569829
-0.4207466698446416 0.8606200554040855 0.286889107584991
-0.4414236878359015 0.8270295595624249 0.3480908436419058
-0.463292443471806 0.7879855110449534 0.4055107226759195
-0.4862825068386701 0.742602872028848 0.4605109097482977
-0.5101550799078066 0.6897809568325205 0.5137548306687458
-0.5344712126128847 0.6283790909693695 0.5652258317881633
-0.558565283413345 0.5574042122344219 0.6142518769598452
-0.5815380994582732 0.4762252098298282 0.6595627251452246
-0.6022862848310987 0.3848023307581842 0.6994128947534647
-0.6195821562771804 0.2838911908554527 0.731794877938888
-0.6322076168339104 0.1751588408211154 0.7547402928818563
-0.63912679560954 0.06114776291822026 0.7666667400011415
-0.639660849165272 -0.05494630385150329 0.7666908775629334
-0.6336160249224527 -0.1696573820096507 0.7548159415984144
-0.6213238330684109 -0.2797029779278493 0.731930965733429
-0.6035806594837978 -0.3823867206290046 0.6996218860096497
-0.5815086288213113 -0.4758522818885149 0.6598578031878167
-0.5563816604189876 -0.5591526208837061 0.6146444456011072
-0.5294618770296506 -0.6321600932940342 0.5657240822333062
-0.5018764012747714 -0.6953777865020375 0.5143635017018715
-0.4745438165615862 -0.7497154407544654 0.4612319633953189
-0.4481429093001226 -0.7962738610491458 0.4063445226084726
-0.4231075133529169 -0.8361536083462089 0.3490374985498346
-0.3996294332983814 -0.8702765980229373 0.2879495771402292
-0.3776536897099728 -0.8991865094226239 0.221000705702042
-0.3568566483077118 -0.9227754403794605 0.145391950227923
-0.3366147929789699 -0.9398730665985054 0.05769835206005614
-0.3160234970077828 -0.9476451925228915 -0.04580107452040219
-0.2941768482493964 -0.9408111173428477 -0.1683283203687173
-0.2713539076137364 -0.91082781316231 -0.3110622953569264
-0.2528505135741326 -0.8453966010814143 -0.4705010145209985
0 0 0
0 0 0
-0.2495368716501597 0.8705784670498707 -0.4240571687828761
-0.2616384395560382 0.9273889905043765 -0.2673854656445528
-0.2762599144544188 0.952316742858931 -0.1295117019276389
-0.290922387766189 0.9566743992245793 -0.01175832320992555
-0.3055957064616196 0.9480987751746215 0.08786339798007865
-0.3206505203016342 0.931290287442837 0.172863079762363
-0.336426954891535 0.9087381126546168 0.2470059647687349
-0.3531718123881398 0.881409571352985 0.3136667633999871
-0.3710431012450798 0.8492759160595227 0.3755761379796269
-0.3901097247672604 0.8116673377296816 0.434753419198542
-0.4103337320204538 0.7675080186543339 0.4925014412846571
-0.4315378057062061 0.7154919801842129 0.5494054500442693
-0.4533650119638973 0.6542520280596488 0.6053217736929768
-0.4752411718937406 0.5825590499799619 0.6593715051649622
-0.4963544869743415 0.4995675834529663 0.7099749663357164
-0.5156707422712359 0.4050937248402914 0.7549720257469482
-0.5320014632856683 0.2998753777617089 0.791864382880162
-0.5441327022371713 0.1857340027023834 0.8181824262328203
-0.551002105232137 0.06555061603692619 0.831925355285516
-0.5518867812241086 -0.05699538841676993 0.8319690537569978
-0.5465471281011451 -0.1778973554990955 0.8183145896724673
-0.5352777771147228 -0.2933846339270075 0.792087847339319
-0.5188488612948543 -0.4004153639631169 0.7552902723028528
-0.49836108285118 -0.4969723301001512 0.7103905504820748
-0.4750635451005147 -0.5821225290554198 0.6598848303171189
-0.4501846169412177 -0.6558823880134379 0.6059307747286637
-0.4248085454933045 -0.718972103868152 0.5501061838729553
-0.3998071045831058 -0.7725413063699726 0.4932891738899701
-0.3758171091607672 -0.8179201713580474 0.4356237984174721
-0.3532456034673332 -0.8564144008178437 0.3765261182213168
-0.332283090897094 -0.8891316265552608 0.3146949287215625
-0.3129078709797456 -0.9168038476495376 0.2481116063668243
-0.2948695083519328 -0.9395536349553603 0.174042925987984
-0.2776504431197672 -0.9565409914991218 0.08910422558596084
-0.260436763768843 -0.965433873060794 -0.01049422814913691
-0.2422303540632746 -0.9616961674386346 -0.1283157710658429
-0.2225730755801366 -0.93779132191531 -0.2664745064112772
-0.2046539476571213 -0.8822324890000837 -0.4240077794817841
0 0 0
-0.08141555834051913 0.8285588514843085 -0.5539510235454977
-0.167894899594122 0.9065248333394843 -0.3873293549798408
-0.2000284082924547 0.9516109401502919 -0.2332922083188047
-0.2176783077052965 0.9709971391683213 -0.09889747257384009
-0.2310343390617834 0.9728238859646502 0.01538899187477102
-0.2432093084404928 0.9634665745272391 0.1121668046110119
-0.2553614694760939 0.9469308549876577 0.195224168020645
-0.268014584910661 0.9252715276510025 0.2684041400454659
-0.2814507710028879 0.8991729329177203 0.3350723805538508
-0.2958394541886964 0.8684079139474319 0.3979280240681766