# OOMMF: rectangular mesh v1.0
# Segment count: 1
# Begin: Segment
# Begin: Header
# Title: 
# Desc: time = 2.78e-09
# Desc: stepsize = 8.885385894251285e-14
# Desc: step = 17790
# meshunit: m
# valueunit: (none)
# valuemultiplier: 384000.0000000001
# xmin: 0
# ymin: 0
# zmin: 0
# xmax: 9.357999999999999e-08
# ymax: 9.357999999999999e-08
# zmax: 2.3395e-08
# ValueRangeMaxMag: 1
# ValueRangeMinMag: 0
# meshtype: rectangular
# xbase: 1.16975e-09
# ybase: 1.16975e-09
# zbase: 1.16975e-09
# xstepsize: 2.3395e-09
# ystepsize: 2.3395e-09
# zstepsize: 2.3395e-09
# xnodes: 40
# ynodes: 40
# znodes: 10
# End: Header
# Begin: Data Text
0 0 0
0 0 0
0 0 0
0 0 0
0 0 0
0 0 0
0 0 0
0 0 0
0 0 0
0 0 0
0 0 0
0 0 0
0 0 0
0 0 0
0 0 0
0 0 0
-0.8357327783005444 0.02977152967711763 -0.5483287146363364
-0.8455766372995238 0.04846086059290218 -0.5316499745545221
-0.856125552682047 0.02931896570576624 -0.5159354962539434
-0.8616785194890101 -0.005541422708932762 -0.5074243014338078
-0.8604367431651486 -0.04491766769498608 -0.5075736539066957
-0.8524737521987887 -0.08015048209171009 -0.5165892004606599
-0.8397925040052719 -0.09993116882209016 -0.533631250691342
-0.8285408367213407 -0.08156724053673936 -0.5539556545034281
0 0 0
0 0 0
0 0 0
0 0 0
0 0 0
0 0 0
0 0 0
0 0 0
0 0 0
0 0 0
0 0 0
0 0 0
0 0 0
0 0 0
0 0 0
0 0 0
0 0 0
0 0 0
0 0 0
0 0 0
0 0 0
0 0 0
0 0 0
0 0 0
0 0 0
0 0 0
0 0 0
0 0 0
-0.7798581821455817 0.240548228659749 -0.577890790227051
-0.807909099558536 0.2703371608291976 -0.5236417728994921
-0.8451099418590742 0.2531574246748404 -0.4708508304154874
-0.8819861849641791 0.2050018198794621 -0.4243520040938192
-0.9143200835330003 0.1231573911081977 -0.3858121847008321
-0.9276755696345254 0.08251696165906831 -0.3641551709667376
-0.9360494944935422 0.04355609274240309 -0.3491621552279091
-0.9399482758293264 0.0006484292112344333 -0.3413163024308008
-0.9388472897953372 -0.04410378508780797 -0.3414976172462673
-0.9327631791094473 -0.0873038250488042 -0.349758336325933
-0.9222196753091326 -0.126809137682235 -0.3652811425094446
-0.906499355596325 -0.1680462449038171 -0.3873233505447007
-0.8705381907421532 -0.249685712950519 -0.4240522411304637
-0.8301229399208853 -0.2991273304689176 -0.4705515325483965
-0.7898128066114484 -0.3180192568656093 -0.524461135619401
-0.7596587293037318 -0.2897688971478454 -0.5821963596917797
0 0 0
0 0 0
0 0 0
0 0 0
0 0 0
0 0 0
0 0 0
0 0 0
0 0 0
0 0 0
0 0 0
0 0 0
0 0 0
0 0 0
0 0 0
0 0 0
0 0 0
0 0 0
0 0 0
0 0 0
0 0 0
0 0 0
-0.7525695534407081 0.3343645463953315 -0.5673089258489564
-0.7904823798763376 0.3629263148554833 -0.4933782495109197
-0.8460293799483194 0.325841539469924 -0.4219734344957412
-0.8802691140222811 0.3047888910031851 -0.3636344576899662
-0.9106000539207498 0.2716727082260292 -0.3114506082907235
-0.9375986162130128 0.2229358254460113 -0.2668491195566293
-0.9590279019291267 0.1619058349598805 -0.2324908254692234
-0.9715462144663527 0.1085149553691336 -0.2105289947188603
-0.9787678419325975 0.05791047704353575 -0.1966211795488864
-0.9818130367148808 0.007059686880147197 -0.1897190600805768
-0.9808119693218844 -0.04424485735718036 -0.1898690955168026
-0.9757485042634948 -0.09528783647181374 -0.1970661935697572
-0.9664302294120777 -0.1462713503837539 -0.2112280846275683
-0.9515801979463688 -0.2001835407829465 -0.2332845405849928
-0.9273464458750421 -0.2617904310368565 -0.2673842544737139
-0.8974483082251746 -0.3115808403367676 -0.3122561672710483
-0.8642866123927065 -0.3460607811828917 -0.3650350495032301
-0.8272714585117309 -0.368643116478604 -0.4239388948950251
-0.7684926412271187 -0.4066272374264807 -0.4940378023620003
-0.7280372215987893 -0.3800069831327655 -0.5705755837196758
0 0 0
0 0 0
0 0 0
0 0 0
0 0 0
0 0 0
0 0 0
0 0 0
0 0 0
0 0 0
0 0 0
0 0 0
0 0 0
0 0 0
0 0 0
0 0 0
0 0 0
0 0 0
0 0 0
-0.7562518038292554 0.4149460216141557 -0.5058685682581803
-0.8076868007010156 0.4148033520366909 -0.4190229243281116
-0.8477071715287323 0.4051038425209613 -0.3424666817567917
-0.8860141821616745 0.3739716608208369 -0.2740876974825456
-0.9157859742818513 0.3379093610556163 -0.2171481361182384
-0.9406308860732122 0.2945169953499025 -0.1687402608009967
-0.9615459072518286 0.2426175474334573 -0.1287097273893119
-0.9779277153428195 0.1844335840742902 -0.0981918358616652
-0.9889461802815899 0.1263806388805982 -0.07754602905748476
-0.9955033900736612 0.0691611532632813 -0.06472816412613974
-0.9982099727684701 0.0121361409893087 -0.05856248242225742
-0.9972639932027241 -0.044950066464773 -0.05868576817397098
-0.9926449971223028 -0.1020764455550243 -0.06508693379561574
-0.9841039390367922 -0.1594965956708397 -0.07810424534992755
-0.9709613824837632 -0.2178410165697697 -0.09889026860651143
-0.952270521224214 -0.2764186425215501 -0.1295128892192076
-0.9289620468872642 -0.3289283083693746 -0.1698107281542752
-0.901655281468553 -0.3731747713223826 -0.2185368240099393
-0.8692556867825677 -0.4103910804845794 -0.2756332927185417
-0.8279739820283333 -0.4429877652687791 -0.3438326990068246
-0.7849100405355414 -0.454628446753176 -0.4209859898729273
-0.7306470042800027 -0.455733596605076 -0.5083914279982099
0 0 0
0 0 0
0 0 0
0 0 0
0 0 0
0 0 0
0 0 0
0 0 0
0 0 0
0 0 0
0 0 0
0 0 0
0 0 0
0 0 0
0 0 0
0 0 0
-0.6508485184255836 0.5041558785235583 -0.5676469468017608
-0.702479336046825 0.5399312418466808 -0.463677729145052
-0.7829236825898067 0.5053354439500217 -0.3628589206948745
-0.8327400374379461 0.4789416589121063 -0.277774940205856
-0.8696048479491242 0.4492448078423452 -0.2048572943540801
-0.9005788186239889 0.410794782048481 -0.1421458352803934
-0.9261172662444387 0.3663983343256524 -0.08977232183314639
-0.9475017848099562 0.3163905855417009 -0.04623164676416518
-0.9653165124789636 0.2608545705255464 -0.01090521762199022
-0.9794366930957694 0.2011101507263433 0.01607704862375427
-0.989572078479814 0.1397441614249184 0.03490946634920997
-0.9958625815098953 0.07796190893830034 0.04668682365660159
-0.9985018310512185 0.01604705455992481 0.05231238311636935
-0.9975797258880129 -0.04592758767187188 0.05220485789501603
-0.993081522661346 -0.107883563024782 0.0463705313501997
-0.9848881027393267 -0.1697409304352372 0.03440118628054042
-0.9727825530384521 -0.2312079084150154 0.01539505083929173
-0.9566231050514628 -0.2910908738236886 -0.0117617200382855
-0.9367253796935623 -0.3468551197403851 -0.04729787466508744
-0.91318892549666 -0.397242218263765 -0.09101981311307096
-0.8853370960582312 -0.44226668435622 -0.1434517558335666
-0.8517532274942088 -0.4817127436888643 -0.2060807415091097
-0.811896085151279 -0.5128521543606344 -0.2789398047674128
-0.7584940017026581 -0.5408449137478268 -0.3635569125380416
-0.6735757258806996 -0.5766777611085234 -0.4623186145367161
-0.6181618871225227 -0.5433477792488487 -0.5680220700769163
0 0 0
0 0 0
0 0 0
0 0 0
0 0 0
0 0 0
0 0 0
0 0 0
0 0 0
0 0 0
0 0 0
0 0 0
0 0 0
-0.6293632868125355 0.5499795527428897 -0.5490212607697926
-0.6927478799530685 0.5739676595127147 -0.4366480283409334
-0.7442920729629622 0.5796894039693267 -0.3316466569259863
-0.7962850458716233 0.5572626520660122 -0.2353475352188345
-0.8370592534287732 0.5249495881370476 -0.1541419351247688
-0.8695293639175345 0.4863075638507988 -0.08616053984666133
-0.8967686858461087 0.4415398474839212 -0.02912880309450482
-0.9199494891059947 0.3916123881546445 0.01823937875682172
-0.9397580840492179 0.3370125342724366 0.05724766551931864
-0.9564493877869273 0.2781036692384049 0.08867309489437702
-0.9699145455235931 0.2157250892308111 0.1128204780087363
-0.9799128019650394 0.1512035013076964 0.1300323103590725
-0.9863115110962755 0.08555576462969218 0.1409603285240553
-0.98906382111737 0.01937043395085193 0.1462106153644869
-0.9881515577571456 -0.04698383570842612 0.1461130318768633
-0.9835651014394365 -0.1131879392187406 0.1406704718334481
-0.9753069560582726 -0.1788605111444194 0.1295579369143512
-0.9634187318241817 -0.2433966904049127 0.1121712898660781
-0.9480409772719461 -0.3057766591137604 0.08785749913627094
-0.9294238814832254 -0.3646970086543638 0.05627912941058599
-0.907654515148918 -0.4193668366856879 0.01716791827861204
-0.8824125089076846 -0.4695055415077129 -0.0302111008868206
-0.8529048640497138 -0.5147400364190829 -0.08715496421673247
-0.8178175802932302 -0.5542176420476167 -0.1549748708872032
-0.7738673586972953 -0.5877919666670549 -0.2358599479872468
-0.7179844618200073 -0.6119703963191575 -0.3316482272137262
-0.662288671704358 -0.6086811479691627 -0.4368992737909033
-0.5951709613679289 -0.5865515918515276 -0.5492984223906104
0 0 0
0 0 0
0 0 0
0 0 0
0 0 0
0 0 0
0 0 0
0 0 0
0 0 0
0 0 0
0 0 0
-0.5866011074598274 0.594931976354944 -0.5495043987424519
-0.65539805531013 0.6229813176330403 -0.4270218577261591
-0.7088387026751036 0.6316103271623605 -0.3140319859691543
-0.7528846513266026 0.6228272263403996 -0.2127227019524333
-0.7924674396429319 0.5972550748698221 -0.1236193053208875
-0.8263627859536508 0.5610503924974298 -0.04844587773382001
-0.855398455857203 0.5177772417389758 0.0141495460807071
-0.8807607392405999 0.4689087104510782 0.0662204007497528
-0.903100965944063 0.41526169687065 0.1093908973498617
-0.9226835586292458 0.3572877580526569 0.144915522222351
-0.9394835678076399 0.2953622264202898 0.1735850829520685
-0.953265786069999 0.2300846468614887 0.195819805910868
-0.9637079546114802 0.1623183446452228 0.2119427592775725
-0.9705293184239161 0.09292389051302737 0.2223465597924359
-0.9735393343296657 0.02262040281106701 0.2273971897135403
-0.9726399269564326 -0.04798631849966576 0.2273079095126984
-0.9678222863316148 -0.1183221900293958 0.2220807993197356
-0.9591712725871137 -0.1877636673584899 0.2115071513299412
-0.9468753546045325 -0.2555653456609815 0.1952265784664653
-0.9312245118945326 -0.3208463597431065 0.1728540479317328
-0.9125517031658872 -0.3827408683210825 0.1440792030997588
-0.8910874459503152 -0.4406701976199661 0.1085031824386898
-0.8668254781467434 -0.4943100385259664 0.06535423665017069
-0.8394359336655263 -0.5432939165667012 0.01338033978268383
-0.8081575175024887 -0.5869201218914466 -0.04905300625999926
-0.7716372887842745 -0.6238589255639072 -0.1239997401283594
-0.7288679925222851 -0.6507263682099252 -0.2128535721872072
-0.6810170357380404 -0.6615082232911966 -0.3140424613849159
-0.6231965936058917 -0.6553425797035817 -0.4267928173545883
-0.5502139800041012 -0.6293463196803536 -0.5488057817778891
0 0 0
0 0 0
0 0 0
0 0 0
0 0 0
0 0 0
0 0 0
0 0 0
0 0 0
-0.5434284535716878 0.6179170372336545 -0.5682112731590828
-0.6087668444270549 0.662068048173257 -0.4371142055737597
-0.6616013972667399 0.6808186081446644 -0.3142763337234582
-0.7049562746351979 0.6790422751620595 -0.204788279438049
-0.741884872559591 0.6615223265335881 -0.1095219035847509
-0.774912042507334 0.6314599924923263 -0.02774174217136125
-0.804701333994328 0.5922488288363902 0.0411957256238145
-0.8317417145971169 0.5462937442578963 0.09883756969763884
-0.8564307397241953 0.4948931242256657 0.146993821807677
-0.8789175330992093 0.4387125369975582 0.1871771350672021
-0.8991156905285755 0.3781202892610149 0.2204904122507111
-0.9167541739281173 0.313443668729226 0.2476183577987256
-0.9314362853011512 0.2451654211431236 0.2689244553775399
-0.9427195104392186 0.1739787737988077 0.2846248599555256
-0.9502035201239982 0.1006937048735881 0.2949136282757928
-0.9535919883992191 0.02614090943330314 0.2999649521441177
-0.9527234759406342 -0.04886017054822272 0.2998844146093517
-0.9475849235952591 -0.1234893722720881 0.2946747147462976
-0.9383167220066526 -0.1969044043835151 0.2842364943793507
-0.9252070736192952 -0.2682373772614948 0.2684037636932345
-0.908662856094698 -0.336639797549376 0.24699283523969
-0.8891422201708792 -0.4013903171917135 0.2197997397048834
-0.8670562849704828 -0.4619966883311751 0.1864737479223584
-0.842678546571714 -0.518148495916658 0.1463386597146761
-0.8160734783921662 -0.5695286970820164 0.09829110369189507
-0.7870287700864297 -0.615564971450614 0.04081030481686886
-0.7550236297243412 -0.6551026578893611 -0.0279253681117114
-0.7193830777255947 -0.6859306318932653 -0.1094858699219037
-0.6792218619091964 -0.7048552908219879 -0.2045401703941167
-0.631803335625075 -0.708775968925813 -0.3137852306376183
-0.5741768162488415 -0.6927253836431971 -0.4364086691837467
-0.5043828256245616 -0.6508673047608328 -0.567423754180552
0 0 0
0 0 0
0 0 0
0 0 0
0 0 0
0 0 0
0 0 0
0 0 0
-0.5767918048209724 0.6733466864737291 -0.4625099498456375
-0.6120910317204242 0.7177812342851297 -0.3318654374826365
-0.6508555165388069 0.7286844444455041 -0.2130870174697397
-0.6860681890711671 0.7192144063066636 -0.1097318445373173
-0.717779745577573 0.6959434112540683 -0.02133085020913672
-0.7471247518286693 0.6625028549969493 0.05380122977999414
-0.7747565904966096 0.621272946614038 0.1173548093926226
-0.8009519476824173 0.5737710477722457 0.17106362045181
-0.8257408857700286 0.5208330743517765 0.2165292087202204
-0.8489481771716396 0.4628747951346857 0.2550174827457372
-0.8702280851378142 0.400133266408772 0.2873959793567392
-0.8891043066940774 0.3328652236159645 0.3141564494406208
-0.905018325281588 0.2614926543624277 0.3355047281619153
-0.9173937555756665 0.1866621771259315 0.3514910082226584
-0.9257115405269873 0.1092144102059565 0.3621192570666691
-0.9295775727952957 0.03011797123063256 0.3673941261982242
-0.9287704080566728 -0.04958698437947799 0.3673236448942408
-0.9232677244536592 -0.1288282101356986 0.3619115931486495
-0.9132527107394401 -0.2065367935808508 0.3511581399090795
-0.8990981263389342 -0.2816946323300863 0.3350681920598177
-0.8813233342160844 -0.353403438854773 0.3136481945936624
-0.8605245928701318 -0.4209631922318868 0.2868578321253099
-0.8372923493287517 -0.4839130527424174 0.2544988784671818
-0.8121357032462596 -0.5419813489431066 0.2160828936091735
-0.7854187351125994 -0.5949497735302425 0.1707400875905736
-0.7572998517917837 -0.6424653232854245 0.1171974524121434
-0.7276721955154433 -0.6838085541490226 0.05384270745753024
-0.6961007703741372 -0.7176347516503705 -0.02107322254053381
-0.6616864070916981 -0.7417768547688202 -0.1092620537943312
-0.6230005020615837 -0.7528147803153171 -0.2124624224888126
-0.5798743404019384 -0.7442626091396711 -0.3313893751767328
-0.5401276917668562 -0.7024932458169966 -0.4634277895941375
0 0 0
0 0 0
0 0 0
0 0 0
0 0 0
0 0 0
0 0 0
-0.4558689729128669 0.7304287644712856 -0.5085836210185285
-0.5409892081596683 0.7582931032523331 -0.3637612489184644
-0.5879458342481326 0.7736838953646124 -0.2360782201807412
-0.6240227175954929 0.7714677655118408 -0.1242301682398535
-0.6552760010173218 0.754864199678058 -0.02816740199505541
-0.6839905611866793 0.7275199157823059 0.0535880989365831
-0.7113848530094408 0.6919256439498558 0.1231685599222192
-0.7380361772702456 0.649581792522161 0.1826091341198959
-0.7640873356700579 0.6013099639162441 0.2336597328674255
-0.7893878816049916 0.5474856376422665 0.2777161301592398
-0.8135765218374948 0.4882417451861026 0.3157740353044127
-0.8361318958910839 0.4236501258170408 0.348430801693516
-0.8564145475773407 0.3538771284269112 0.375932308633112
-0.8737151143008315 0.2793024762903235 0.3982612531748193
-0.8873178981510855 0.2005807199625555 0.4152521190795324
-0.8965778714895115 0.1186368749086556 0.4267006119836768
-0.9009980721495758 0.03461452768965698 0.4324399478026622
-0.9002924914792094 -0.05019849836512617 0.4323812444452733
-0.8944245166936472 -0.1344527481425143 0.4265292984711139
-0.8836155491357276 -0.2168244282521576 0.4149828052325671
-0.8683213115962549 -0.296106227616211 0.3979185868926653
-0.8491772637899454 -0.3712949107108019 0.3755503480792932
-0.8269215818521115 -0.4416573287383467 0.3480510040768579
-0.8023113484246034 -0.5067472852100826 0.3154420535079385
-0.7760464356449736 -0.5663549396736471 0.277477948727445
-0.7487035853348145 -0.6203979937685434 0.2335578528646813
-0.720671464422996 -0.668775650500348 0.1826794177356875
-0.6920723855886403 -0.7111954308582613 0.1234377261293306
-0.6626511563488674 -0.7469737280933342 0.05407119869074616
-0.6316112989011095 -0.7747983694995295 -0.02747096141970996
-0.5974119296515651 -0.7923914315983634 -0.1233483094310132
-0.5574284981132115 -0.7962484041288791 -0.2350786005009007
-0.5055147902990774 -0.7829288845623582 -0.3625977916463646
-0.4151481959400404 -0.7563000776605441 -0.5056304657933341
0 0 0
0 0 0
0 0 0
0 0 0
0 0 0
-0.3801670837400297 0.7278172383199807 -0.570749556324731
-0.4547944236002278 0.7847111892694688 -0.4211773755764092
-0.5130275659099773 0.8117152136784257 -0.2791435625255771
-0.5544039613889362 0.8176506093348471 -0.1551893316262665
-0.5871179036741124 0.8080001509474027 -0.04927801999156432
-0.6157741383967361 0.7868773750612517 0.04057347777146121
-0.6426853238561175 0.7571519676411929 0.1169464509808933
-0.6690055280000257 0.7205260254759134 0.1824112115997518
-0.6952255067304676 0.6778393746239986 0.2391553407321492
-0.7214070691629603 0.6293828810400233 0.2888754569281838
-0.747313131763474 0.5751368368086274 0.3327772558929379
-0.7724840897674207 0.5149559078148719 0.3716029387165287
-0.7962866890934288 0.4487258374466395 0.4056755249955762
-0.8179561295784864 0.3765010344761123 0.4349652182915304
-0.8366473402830029 0.2986164349934708 0.4591834630615161
-0.8515047636544527 0.2157561939244702 0.4779005150206475
-0.8617496798092503 0.1289645531075735 0.4906685575726427
-0.8667730976458765 0.03959835549126566 0.4971281197435511
-0.8662164741794522 -0.05076751899949926 0.4970831709832401
-0.8600235993653839 -0.1404659367805363 0.490539222834398
-0.8484525341040409 -0.2278772809282555 0.4777030900142633
-0.8320443969755781 -0.3115644540091463 0.4589441278189845
-0.8115550080933926 -0.3903826584679637 0.4347181256929802
-0.7878639279224912 -0.4635436470150732 0.4054598850570896
-0.761879464434811 -0.5306198910428735 0.3714595710197457
-0.7344538300357487 -0.5914880800323301 0.3327452820484261
-0.7063114188960355 -0.6462268867286622 0.2889896025915967
-0.6779819541041429 -0.6949870711555862 0.2394440244309875
-0.6497231372331029 -0.7378408684506079 0.1828953192075363
-0.6214129878309316 -0.7746012170915412 0.117638654511758
-0.592388799370358 -0.8045838013962727 0.04147790871377438
-0.5611927726422473 -0.826282527070562 -0.04816489792361101
-0.5250980529458839 -0.8370174524958944 -0.1538629877836912
-0.479101057859292 -0.8327394408734561 -0.2775017116557493
-0.4149793938754942 -0.807730654150272 -0.4187640063385347
-0.33455862712813 -0.7526590669100484 -0.5670757039516292
0 0 0
0 0 0
0 0 0
0 0 0
-0.406815789199531 0.7682877835994456 -0.4942011687863694
-0.4431828076765332 0.8277927927957145 -0.3440175739339714
-0.4819181996728485 0.8515892309028238 -0.2062780420559025
-0.5149579438769188 0.8527521168961996 -0.08736213806395909
-0.5435253783360295 0.8392895245073508 0.01316271844643426
-0.5697741861782732 0.8159298204113317 0.09806072061950985
-0.5952092367558537 0.7852756772866532 0.1704936219994796
-0.6206708846921474 0.748560450659232 0.2332914584898339
-0.6465121891458886 0.7061690321066781 0.2886993026997248
-0.6727308897257526 0.6579968396253671 0.3383390445275655
-0.6990495068087822 0.6036960885556319 0.3832503355419645
-0.7249632643161081 0.542858378122693 0.4239493444907438
-0.7497737302464941 0.4751688096392189 0.4604931658323549
-0.7726246750153488 0.4005465392406384 0.4925582010887378
-0.7925543999252274 0.3192672096148477 0.5195440039341334
-0.8085733491372228 0.2320484897900946 0.5407056846854399
-0.8197659508078338 0.1400763525168626 0.5553038819976852
-0.8254036988159484 0.04495794498831183 0.562749959718682
-0.825047539799353 -0.05139797576736085 0.5627208945454686
-0.8186159255829351 -0.1469556937764652 0.5552224693297919
-0.8064013547691208 -0.2397514446791214 0.5405886604441497
-0.7890309457170143 -0.3280791141924237 0.5194172326094196
-0.7673810877818315 -0.4106281704023029 0.4924538270608015
-0.742467045444492 -0.486551124896818 0.4604461850103297
-0.7153309810922838 -0.555455170270267 0.423994270373526
-0.6869452890465637 -0.6173300608359888 0.3834185256934863
-0.6581361252386748 -0.6724346067035293 0.3386569656205116
-0.6295206884229043 -0.7211616828818854 0.2891877071912267
-0.6014445650055762 -0.7638878437256905 0.233965376569628
-0.5739021340197135 -0.800793998835484 0.1713630998689422
-0.5464223323489105 -0.8316221781613593 0.09913217187438481
-0.5179055876200765 -0.8553158881543936 0.014440698825319
-0.4864390514596882 -0.869484336001388 -0.08587222288507257
-0.449383650166166 -0.8695999660860719 -0.2045732972468174
-0.4052539947998589 -0.8477463743277396 -0.3421918825935636
-0.363087977332731 -0.79056909822189 -0.4931202912607158
0 0 0
0 0 0
0 0 0
-0.2899767413492286 0.7594621902432774 -0.5823492689678296
-0.3688560827975522 0.8270920133080695 -0.4241037511096182
-0.4106128898381936 0.8690944396511775 -0.2758113660930824
-0.4425006369347593 0.8851896581746279 -0.1436400200954356
-0.4697540784613438 0.8822734355605614 -0.03040872692331711
-0.494574904732744 0.8666900803541628 0.06514574601837954
-0.5184308302386651 0.8425434815971695 0.1461162409733003
-0.542281713438876 0.8119990962936824 0.2158425604185596
-0.5666733228662316 0.7759078905057133 0.2772152423708286
-0.5918239029838206 0.7343144544922885 0.3324556358082825
-0.6176822085359635 0.6868077458246333 0.3830976501277703
-0.6439581753472254 0.6327614746977646 0.4300357944889955
-0.6701377795714053 0.5715169784158083 0.4735860003986292
-0.6954953600003974 0.50254565403577 0.5135504549970498
-0.7191175090869132 0.4256068372081408 0.5492984873876093
-0.7399521467327245 0.3408955032465105 0.5798802259190602
-0.7568919068210045 0.2491561542463575 0.6041819694347295
-0.7688909898936797 0.1517302767248495 0.6211155840786136
-0.7751007504490602 0.05050959706373876 0.6298155343096592
-0.7749968544420384 -0.0522135172177101 0.6298044333161695
-0.7684663079041443 -0.1539788612891848 0.6210877908092043
-0.7558301404548188 -0.2524277685429053 0.6041531432083239
-0.7377953220251192 -0.3455495153917039 0.5798737752394125
-0.7153500986052005 -0.4318534342314337 0.5493421955102719
-0.6896309282537114 -0.5104402845098379 0.5136729492054644
-0.6617912075561457 -0.5809757917056358 0.4738138105346735
-0.6328929338267374 -0.643591276286219 0.4303914536796242
-0.6038284022972931 -0.6987439806937308 0.3835988921039487
-0.5752665121559496 -0.747062563104071 0.3331155457199554
-0.5476107544529781 -0.7891859395586199 0.2780431880309565
-0.5209531522101306 -0.8255820499888262 0.2168457791578503
-0.4950089746501525 -0.8563108679571951 0.1473017733572798
-0.4690223001369831 -0.8806775237433698 0.06652203505199807
-0.4416541522451206 -0.8967220008012707 -0.02883163338433824
-0.410913527385457 -0.9005708350190617 -0.1418528960744567
-0.3740987852323051 -0.8860489022428184 -0.2738018292890119
-0.3259806179364679 -0.8461110797708333 -0.4217021192960644
-0.2407048895692685 -0.7799883307609699 -0.577649859356134
0 0 0
0 0 0
-0.3182511848722839 0.7896304462014526 -0.5245950264338024
-0.3462973529695977 0.8641264066783413 -0.3651899459287273
-0.3734214174154605 0.9015125070067113 -0.218704468920739
-0.3975029697184656 0.9130577921782456 -0.09119680481018853
-0.4196448280064608 0.907529525782624 0.01698170074500207
-0.4409679001201774 0.8909641995730149 0.1083056145489114
-0.4623159746368797 0.8669317596453513 0.1862612780847538
-0.4842551966359294 0.8371649463930257 0.2542670978751654
-0.5071129446140514 0.8021808966903167 0.3151860885096053
-0.5310090908776443 0.7617472643647351 0.3711744207756501
-0.555867301124312 0.7151998907815977 0.4236751819103448
-0.5814096382607663 0.6616657194574384 0.4734567649029368
-0.6071435735496098 0.6002434541653205 0.5206577348211524
-0.6323529555022404 0.5301782357493304 0.5648369481587658
-0.6561067693988112 0.451045413397588 0.6050470578410024
-0.6773003498280057 0.3629348956704792 0.6399550746947156
-0.6947400967458253 0.2666048647520302 0.6680254815979346
-0.7072722345066094 0.1635588506113327 0.6877604878754864
-0.7139397641014853 0.05600214503840764 0.6979640198361315
-0.7141350596277262 -0.05334226153436698 0.6979725780751721
-0.7077076278225446 -0.1615356982130424 0.6877907615871347
-0.6949946261623892 -0.265777679658545 0.6680903341620203
-0.676765024257083 -0.3637245334888458 0.6400730940139814
-0.6540957158772702 -0.4537006832423314 0.6052391961005519
-0.6282158517654358 -0.5347714158332471 0.5651233284853243
-0.6003572246175435 -0.6066897567265823 0.5210554115759284
-0.5716365707198042 -0.669758026933887 0.4739787087763841
-0.5429784360102096 -0.7246503715600636 0.4243303630731227
-0.5150727973553217 -0.7722300889874297 0.3719686856269345
-0.4883534446710637 -0.8133737148314566 0.3161235725142658
-0.462980705726431 -0.8487898890231178 0.2553518952684292
-0.4388132807408023 -0.8787986567374256 0.1874988681618894
-0.4153589388864614 -0.9030183799327337 0.1097030418483152
-0.3917086668437533 -0.9199023912065549 0.01854483680033895
-0.3664968344354227 -0.9261073620402173 -0.08947191919101559
-0.3380134987328223 -0.9158172783616085 -0.2168538386303817
-0.3049015600492601 -0.8803469029645624 -0.3633515778419438
-0.2704592484957553 -0.8080374375312415 -0.5233806401186957
0 0 0
0 0 0
-0.2993786941643758 0.8299618638888381 -0.4706757928453496
-0.3118379746167148 0.8973087906581142 -0.3124004030000879
-0.3291973526446888 0.9288382743347191 -0.1699663588555943
-0.3471406825589388 0.936611287992303 -0.04746200288560023
-0.3650028802457709 0.929314270187136 0.05610601250170513
-0.3830702446988382 0.9124426269283403 0.1438945453812657
-0.4017458390180041 0.8890310695829645 0.219599722558771
-0.4213469264187769 0.8604100824023468 0.2866378511254851
-0.4420707321469959 0.8268037581719162 0.3478059994477005
-0.4639875240641414 0.7877442390967944 0.40518463850773
-0.4870255821130884 0.7423484572451453 0.4601356869371894
-0.5109446955036062 0.6895180375186157 0.5133228945539086
-0.5353044095362947 0.6281149080107518 0.5647307778629062
-0.559437596276413 0.5571486998281985 0.6136895812641899
-0.5824436749028427 0.4759907002900957 0.6589326360129807
-0.6032181581713724 0.3846027108837088 0.6987192629613402
-0.6205326554044194 0.283740443640459 0.7310475936759896
-0.6331688406676339 0.17506910555318 0.7539549240428192
-0.640091042632086 0.06112727701519446 0.7658635081702717
-0.6406209043518913 -0.05489482413817528 0.7658925611273444
-0.6345652411352702 -0.1695373928222673 0.7540451095113367
-0.6222560690397622 -0.2795235270899462 0.7312072088993503
-0.6044901676175592 -0.382160827008637 0.6989597553176931
-0.5823900187477989 -0.4755947846741951 0.6592658544575501
-0.5572299707062051 -0.55887810498192 0.6141254135097969
-0.5302727526229094 -0.6318813150314629 0.5652758720658712
-0.5026462960623139 -0.6951047850698457 0.5139805821505706
-0.4752701760540416 -0.7494552707201951 0.4609067768467705
-0.4488242802113017 -0.7960307745623506 0.406068678233708
-0.4237435952664146 -0.8359294694231755 0.3488026485286212
-0.4002210759542017 -0.8700713674984749 0.2877479901257248
-0.3782028800011955 -0.8989986839805806 0.2208256048559243
-0.3573664935702778 -0.9226024047345316 0.1452377087788961
-0.3370895242842071 -0.9397113522752281 0.05756063779101642
-0.3164684803678623 -0.9474906778733325 -0.04592511596924179
-0.2945986310406256 -0.9406591863697699 -0.1684397271642033
-0.2717603668537025 -0.9106734139264653 -0.3111595027876493
-0.2532513087631023 -0.8452339744370432 -0.4705776270363208
0 0 0
0 0 0
-0.2499531350005748 0.8704030109916144 -0.424172168771261
-0.2620653931682522 0.9272299935459772 -0.2675187260217417
-0.2767076654816399 0.9521671278139694 -0.1296558081005096
-0.291398999527166 0.9565274350656741 -0.0119117186521681
-0.3061082827593425 0.9479486144129656 0.08769916566686645
-0.3212053905607438 0.9311321891969514 0.1726845196189049
-0.3370296641659446 0.9085684918546115 0.2468082273369883
-0.3538270565927705 0.8812260227417416 0.313443951713328
-0.3717546344384801 0.8490773032385284 0.3753214953858887
-0.3908802146908948 0.8114539893418719 0.4344595273950846
-0.411164567525013 0.767282029587292 0.4921605281657341
-0.4324288509015794 0.7152575749553185 0.5490099182865241
-0.4543143510183502 0.6540158927867366 0.6048650117515002
-0.4762448819773804 0.5823304833366076 0.6588490119650354
-0.4974065244283754 0.499358278321124 0.7093856915164318
-0.5167629982751664 0.4049169955853011 0.7543197135829295
-0.5331240549573323 0.2997447482562763 0.7911585352624543
-0.5452744775665292 0.1856612580428642 0.8174384633576333
-0.5521513025544491 0.06554369193840025 0.8311636201943083
-0.5530316940371477 -0.05693410004768124 0.8312126404489784
-0.5476766675800914 -0.1777716777980922 0.8175863858707634
-0.5363818525595269 -0.293203966993104 0.7914075700827709
-0.5199186134765823 -0.4001929360945694 0.7546722793773437
-0.4993890086791541 -0.4967229375002625 0.7098428990780714
-0.4760435850980695 -0.5818604064620586 0.6594095635330021
-0.4511122038928471 -0.6556196748863632 0.6055250790849517
-0.4256806243264967 -0.7187180500934887 0.5497639225547786
-0.4006220913494615 -0.7723021349318581 0.493002385696537
-0.3765748107444529 -0.8176993705895979 0.4353839124843203
-0.3539470988359196 -0.8562132275720146 0.3763248067246548
-0.332930619360342 -0.888949639293351 0.314524627799731
-0.3135047340222495 -0.9166393774525132 0.2479657908847644
-0.2954200139012543 -0.9394041512908802 0.1739162324915164
-0.2781598754362882 -0.956403376032504 0.08899250536363629
-0.2609113823728798 -0.9653046258378899 -0.01059386068644303
-0.2426774108794938 -0.9615715651832911 -0.1284048257651574
-0.2230009505890202 -0.9376674330002926 -0.2665527361087001
-0.2050729190377668 -0.8821045473395844 -0.4240715333999157
0 0 0
-0.08184043046191143 0.8284271568381379 -0.5540853632382718
-0.1683263454200904 0.906395313053546 -0.3874451934300902
-0.2004740852222636 0.9514884005150667 -0.2334094360551347
-0.2181476183127898 0.9708793691889716 -0.09901952892072131
-0.2315359575213243 0.9727066448332088 0.01526052004371391
-0.2437512010164504 0.9633455981287044 0.1120295075820925
-0.25595093860077 0.9468025306845237 0.1950745624595008
-0.2686582602819791 0.9251330841599477 0.2682377970662656
-0.282154573532191 0.8990225122024786 0.3348840384192877
-0.2966085076000222 0.868244674767403 0.3977116769185103