# OOMMF: rectangular mesh v1.0
# Segment count: 1
# Begin: Segment
# Begin: Header
# Title: 
# Desc: time = 2.1199999999999997e-09
# Desc: stepsize = 8.859635663348017e-14
# Desc: step = 13566
# meshunit: m
# valueunit: (none)
# valuemultiplier: 384000.0000000001
# xmin: 0
# ymin: 0
# zmin: 0
# xmax: 9.357999999999999e-08
# ymax: 9.357999999999999e-08
# zmax: 2.3395e-08
# ValueRangeMaxMag: 1
# ValueRangeMinMag: 0
# meshtype: rectangular
# xbase: 1.16975e-09
# ybase: 1.16975e-09
# zbase: 1.16975e-09
# xstepsize: 2.3395e-09
# ystepsize: 2.3395e-09
# zstepsize: 2.3395e-09
# xnodes: 40
# ynodes: 40
# znodes: 10
# End: Header
# Begin: Data Text
0 0 0
0 0 0
0 0 0
0 0 0
0 0 0
0 0 0
0 0 0
0 0 0
0 0 0
0 0 0
0 0 0
0 0 0
0 0 0
0 0 0
0 0 0
0 0 0
-0.8353499038937234 0.02901357936084331 -0.5489524116691886
-0.8451701839334532 0.04778955508246691 -0.5323565709324083
-0.8556900791767948 0.02872482916694948 -0.5166907901131385
-0.8612116718635007 -0.00606117551958204 -0.5082103092199077
-0.8599377589963085 -0.04536152215678001 -0.5083791724294239
-0.8519435243060847 -0.08051309364990804 -0.5174068738853864
-0.8392347698782807 -0.1002017518980502 -0.5344573041356161
-0.8279658114996374 -0.08172266241809671 -0.5547918721782464
0 0 0
0 0 0
0 0 0
0 0 0
0 0 0
0 0 0
0 0 0
0 0 0
0 0 0
0 0 0
0 0 0
0 0 0
0 0 0
0 0 0
0 0 0
0 0 0
0 0 0
0 0 0
0 0 0
0 0 0
0 0 0
0 0 0
0 0 0
0 0 0
0 0 0
0 0 0
0 0 0
0 0 0
-0.7797434412030988 0.2396445293720839 -0.5784208376630129
-0.8077767702560583 0.2695014954723302 -0.5242762948797781
-0.8449548896011376 0.2523768372712623 -0.4715476291405605
-0.8818038083107548 0.2042644698142966 -0.425085956037286
-0.9140989295658628 0.1224495015248873 -0.3865608186855593
-0.9274238154136711 0.08186602325589348 -0.3649424897703935
-0.9357688461102365 0.04296976357086291 -0.349986094106866
-0.9396382426015837 0.0001302374429619774 -0.3421694844354405
-0.9385074213140268 -0.04455033848775405 -0.3423727317984329
-0.9323939357484158 -0.08767425410990225 -0.3506490749251318
-0.9218225893377516 -0.1270984111795563 -0.3661817959187412
-0.9060747837217915 -0.1682529112328436 -0.3882260220093195
-0.870067696955426 -0.2498340345701839 -0.4249295916796859
-0.8296125721748813 -0.2992002402917947 -0.4714044932949928
-0.7892711044965735 -0.3179996623647235 -0.5252878623599447
-0.7590987936115277 -0.2896345114124087 -0.5829930285487277
0 0 0
0 0 0
0 0 0
0 0 0
0 0 0
0 0 0
0 0 0
0 0 0
0 0 0
0 0 0
0 0 0
0 0 0
0 0 0
0 0 0
0 0 0
0 0 0
0 0 0
0 0 0
0 0 0
0 0 0
0 0 0
0 0 0
-0.7526337259450442 0.3334329310972587 -0.5677719216639461
-0.7905314560130731 0.3620476294651126 -0.4939448664097464
-0.8460512982588577 0.3249892588913256 -0.4225863016234288
-0.8802716083482279 0.3039774591995273 -0.3643070131559685
-0.9105818255056423 0.2709030237952021 -0.3121734946426868
-0.9375550352283726 0.2222045333550637 -0.2676111008055957
-0.958952253785377 0.1612111779484541 -0.2332842280661454
-0.9714386139892659 0.1078679524453631 -0.2113563911639727
-0.9786294615562744 0.05731999623039016 -0.1974811256961633
-0.9816446554053172 0.00653213386750161 -0.1906071922601887
-0.9806143550454676 -0.0447043312096049 -0.1907800027515014
-0.9755227446071452 -0.09567482078877634 -0.1979942004735933
-0.9661773350220638 -0.1465826528347377 -0.2121671114418838
-0.9512990888008703 -0.2004189699662047 -0.2342269841933649
-0.9270299162663945 -0.261954807189261 -0.2683192377328875
-0.8970962596638457 -0.3116684551197288 -0.3131789823414383
-0.8639023934037469 -0.346063099634459 -0.3659412326353341
-0.8268584833282721 -0.3685537496058978 -0.424821353276294
-0.7680427321531864 -0.406455428645044 -0.4948781123788381
-0.7275663565033114 -0.3797232778435531 -0.571364532630652
0 0 0
0 0 0
0 0 0
0 0 0
0 0 0
0 0 0
0 0 0
0 0 0
0 0 0
0 0 0
0 0 0
0 0 0
0 0 0
0 0 0
0 0 0
0 0 0
0 0 0
0 0 0
0 0 0
-0.7564518166503874 0.4140376092956772 -0.5063136450610908
-0.8078692908822565 0.4139228342751656 -0.419541530858404
-0.8478767554834187 0.4042526811758801 -0.3430521494948292
-0.8861657455783728 0.3731439482924092 -0.2747250720561883
-0.9159180293329096 0.337108320470711 -0.2178351298857356
-0.94074048654943 0.2937453655278379 -0.1694727033998626
-0.9616286234719422 0.2418771952787183 -0.1294828672974049
-0.9779787873796419 0.1837281490801944 -0.09900231649315082
-0.9889638298777913 0.1257185767750022 -0.07839249101233146
-0.9954879594366079 0.06855156681067201 -0.06560796677645003
-0.9981627627084456 0.01158698337808679 -0.05947134569217633
-0.9971868203215821 -0.04543232201254968 -0.05961836540429483
-0.992539923915623 -0.102486893539255 -0.06603738400513877
-0.9839726600180398 -0.159832165378363 -0.0790663218284874
-0.9708040639761244 -0.2181008049874624 -0.09985743953887972
-0.9520850707375181 -0.2766032026727427 -0.1304786815917302
-0.928748145904508 -0.3290354811635154 -0.1707704119993612
-0.9014138987460799 -0.373201004736291 -0.2194857471710046
-0.8689868921889545 -0.4103334403687037 -0.2765650898413701
-0.8276741638617645 -0.4428449982322993 -0.3447372709997613
-0.7845816889761462 -0.4543914595055333 -0.4218530251779264
-0.7302895856473725 -0.455399686502337 -0.5092035414532795
0 0 0
0 0 0
0 0 0
0 0 0
0 0 0
0 0 0
0 0 0
0 0 0
0 0 0
0 0 0
0 0 0
0 0 0
0 0 0
0 0 0
0 0 0
0 0 0
-0.6511915353812175 0.5032727939869398 -0.5680370402363133
-0.7028133903792676 0.5390856315310762 -0.4641551682146166
-0.783239233200927 0.5044881518706112 -0.3633565854597907
-0.8330425193138179 0.4781002005012572 -0.2783170122287608
-0.8698946872499693 0.4484126806741997 -0.2054490226427366
-0.9008520777671433 0.4099728468146142 -0.1427858496397344
-0.9263697963690037 0.3655899297341474 -0.09045995607024623
-0.9477292014373976 0.3156003630181686 -0.04696564282145119
-0.9655142031981132 0.2600880843330381 -0.01168382688515665
-0.9796005532161761 0.2003747000342471 0.01525567844268384
-0.989699963873641 0.1390494213773119 0.03404761259100964
-0.9959544846275444 0.07731823408464492 0.04578815598289163
-0.9985593363741563 0.01546395913730537 0.0513820757444037
-0.997605451316934 -0.04644226333009855 0.05124919198888237
-0.9930785795157703 -0.1083240648489002 0.04539638621686246
-0.9848594308712171 -0.1701037958152485 0.03341556633166549
-0.9727301942643714 -0.2314918489363503 0.01440461878800322
-0.9565479856060245 -0.2912960005458279 -0.01275112932493246
-0.9366284108158955 -0.3469814290898297 -0.04828154843487135
-0.9130707872627541 -0.3972894818620175 -0.09199350547284961
-0.8851971181084476 -0.4422347477473434 -0.1444108374649977
-0.8515885818810337 -0.4816013082879798 -0.2070194847475848
-0.8117039999354809 -0.512659528421908 -0.2798514327406009
-0.7582682897218982 -0.5405725530443242 -0.3644317709769116
-0.6733025906362737 -0.5763350528028536 -0.4631430970587967
-0.6178630939264682 -0.5428980865388796 -0.5687766387572852
0 0 0
0 0 0
0 0 0
0 0 0
0 0 0
0 0 0
0 0 0
0 0 0
0 0 0
0 0 0
0 0 0
0 0 0
0 0 0
-0.6298114392471755 0.5491331933634676 -0.5493544274326376
-0.6931850073214969 0.5731359939909789 -0.4370465398749521
-0.7447254418250253 0.578871078516338 -0.3321028315986655
-0.79671105607375 0.5564434424107936 -0.2358435679171156
-0.8374766409276012 0.5241248354610815 -0.1546804213645513
-0.869935203539152 0.485477081497571 -0.08674528796363702
-0.8971581235596692 0.4407056911568158 -0.02976231027466928
-0.9203170250189708 0.3907792021870284 0.01755530114523228
-0.9400981795203588 0.3361871364831586 0.05651214140130249
-0.9567568387621936 0.2772947036049888 0.08788628353955345
-0.9701851061685137 0.2149430475475891 0.1119836866679426
-0.9801440429913063 0.1504604526476778 0.1291483920833376
-0.9865031875146963 0.08486416177672824 0.1400340496781998
-0.9892176722551227 0.01874175463032675 0.1452485577605945
-0.988270823377255 -0.04754010422608759 0.1451231137738388
-0.9836539045882109 -0.1136649257366203 0.1396613069022872
-0.9753696110142264 -0.1792541989282789 0.1285381424968375
-0.9634591029348857 -0.2437057560096551 0.1111488257232925
-0.9480621473868496 -0.3060018451797933 0.08683913541023278
-0.9294282128683384 -0.3648402355020697 0.05527024229329957
-0.9076433261921949 -0.4194306093641724 0.01617270376799736
-0.8823854259152039 -0.4694924836936544 -0.03118922710820652
-0.8528594219851194 -0.5146522365933156 -0.08811289179629396
-0.8177495899278199 -0.5540559041275483 -0.1559091507073489
-0.7737701965960199 -0.5875557886070721 -0.2367654496206693
-0.7178506404325575 -0.6116562387727893 -0.3325163208037928
-0.6621219843548078 -0.6082753527024696 -0.4377163158128072
-0.5949752777906151 -0.5860495039394957 -0.5500458142284614
0 0 0
0 0 0
0 0 0
0 0 0
0 0 0
0 0 0
0 0 0
0 0 0
0 0 0
0 0 0
0 0 0
-0.5871456002623694 0.5941339683733391 -0.5497862054630774
-0.6559317060947983 0.6221886712758166 -0.4273579931106944
-0.7093708768120714 0.6308194461686168 -0.3144197599808124
-0.7534184245754311 0.6220325602703586 -0.213157621195625
-0.7930006322825736 0.5964477707772738 -0.1240969537670378
-0.8268919123842305 0.5602248527444859 -0.04896814884155141
-0.8559186400012728 0.5169322107707149 0.01357833443660359
-0.8812658345894216 0.4680467105794726 0.06559577350062
-0.9035841761764007 0.4143886715128229 0.1087090864898245
-0.9231380690741092 0.356412623590857 0.1441740169767313
-0.939903124593145 0.2944964399351903 0.1727829946653929
-0.9536453698587177 0.2292417844895089 0.1949582334529477
-0.964044499937688 0.1615133910294909 0.2110251801516752
-0.9708221505491575 0.09217200572919666 0.2213790264748789
-0.973790152621426 0.02193552525920031 0.2263880990448525
-0.9728524108979635 -0.04859268266247631 0.2262674033122827
-0.9680014579171013 -0.1188417767325413 0.2210199302629023
-0.959322740745143 -0.1881918185967798 0.210436970379406
-0.9470045915839753 -0.2559008811605667 0.1941572623934335
-0.9313362982217961 -0.3210910270926311 0.1717942139163023
-0.9126497534630865 -0.3828985048998307 0.1430355286257256
-0.8911739806458495 -0.4407458571849361 0.1074803498047254
-0.866900779699875 -0.4943090707536817 0.06435511422085632
-0.8394981032824838 -0.5432209645545655 0.01240637954919904
-0.8082025841949652 -0.5867780483957693 -0.05000104820333337
-0.7716594344767993 -0.6236477899075779 -0.1249205800752598
-0.7288611390473397 -0.6504422546576876 -0.2137435691253376
-0.6809786755433109 -0.6611430020698091 -0.3148935919789375
-0.6231257426153377 -0.6548891584627198 -0.4275915095252406
-0.5501130631397437 -0.628799943266789 -0.5495327552664087
0 0 0
0 0 0
0 0 0
0 0 0
0 0 0
0 0 0
0 0 0
0 0 0
0 0 0
-0.5440582060233197 0.617168144648788 -0.5684225098370569
-0.6093854269296045 0.6613214306455163 -0.4373824034123807
-0.6622207370805154 0.6800689856403566 -0.3145947713339091
-0.7055822706426157 0.6782818124719832 -0.2051522415781295
-0.7425189939047334 0.6607427941697228 -0.10992953944909
-0.7755521932252267 0.6306535506952706 -0.02819387484876662
-0.8053432139894899 0.5914103708106418 0.04069497485804578
-0.8323792771721478 0.5454221659088572 0.09828224595349402
-0.8570565632342328 0.4939915335771431 0.1463776354885784
-0.8795233800016734 0.4377880919930768 0.1864945321973077
-0.8996931845225822 0.3771838607383129 0.2197373635096111
-0.9172955398996384 0.3125093654607201 0.2467930083684874
-0.9319351482762452 0.244249936952722 0.2680276995124262
-0.9431716724217326 0.1731003676121649 0.2836608169517332
-0.9506074961360315 0.09987077613990092 0.2938898030949663
-0.9539491266589779 0.02539037533249251 0.2988919413216883
-0.9530376425192086 -0.04952433923932148 0.2987751525216533
-0.9478618415784146 -0.1240572262289176 0.2935434105885585
-0.9385631160652824 -0.1973705285499198 0.2830974242584201
-0.9254297807388184 -0.2686008315086884 0.2672701147426381
-0.9088680484825012 -0.3369035175801206 0.2458757618996844
-0.8893347836432143 -0.4015601557972762 0.2187077590721097
-0.8672393281123055 -0.4620802464059721 0.1854124959562115
-0.8428530584140006 -0.5181538789893444 0.1453109755333735
-0.8162382277864347 -0.5694632271678964 0.09729742238920991
-0.7871804745986204 -0.6154339326478379 0.03984940346236928
-0.7551574034591823 -0.6549081421029063 -0.02885517991807604
-0.7194934537665436 -0.685670704797071 -0.110385028741119
-0.679304287855115 -0.7045240600839031 -0.2054057770963305
-0.631854410919227 -0.7083650918357122 -0.3146091226752633
-0.5741961171574482 -0.692225546300982 -0.4371757222097501
-0.5043763828518448 -0.6502713812138785 -0.5681123086111437
0 0 0
0 0 0
0 0 0
0 0 0
0 0 0
0 0 0
0 0 0
0 0 0
-0.5774771738853868 0.6726415738843382 -0.4626806962946978
-0.612782134984008 0.7170795315403318 -0.3321069112354312
-0.6515587937265871 0.7279708364385463 -0.2133766613585412
-0.6867873104968117 0.7184769290927741 -0.1100640381867413
-0.7185153734254429 0.69517227960247 -0.02170621624329259
-0.7478746880483819 0.6616903883984867 0.05337865563682384
-0.7755161536259886 0.620414466216449 0.1168785077527511
-0.801714288071134 0.5728657872326187 0.170525628926992
-0.8264973910687128 0.5198846695927772 0.2159212654627125
-0.849689055117508 0.4618914352254884 0.2543320893612409
-0.8709431231253321 0.399127564254685 0.2866273952936365
-0.8897837642195671 0.3318538124226319 0.3133016120479142
-0.9056539088753416 0.2604954079228161 0.3345641041563478
-0.9179795565612512 0.1857009658352392 0.3504692354878915
-0.9262447364672074 0.1083113779264554 0.3610253918749561
-0.9300587024626713 0.02929358260875366 0.3662413084175457
-0.9292031383074346 -0.05031580321070763 0.3661281848026386
-0.9236581652362621 -0.1294494704915996 0.3606915973263387
-0.9136084260924291 -0.2070441853635524 0.3499319206360812
-0.8994270479292776 -0.2820874945606369 0.3338527083396606
-0.881632754027736 -0.3536860609038763 0.3124577689028846
-0.8608203646404385 -0.4211435963716433 0.2857032919926896
-0.8375783368840974 -0.4840015160666875 0.2533871781042142
-0.8124135143056427 -0.5419888310147671 0.2150171826361807
-0.7856877339378125 -0.594886415754174 0.1697201729047443
-0.7575574345507401 -0.6423390846287782 0.1162206251711092
-0.7279142658696154 -0.6836240846577796 0.05290493757024117
-0.6963224320450784 -0.7173925978658766 -0.02197569471201178
-0.6618827438691751 -0.7414731589918091 -0.1101307761841299
-0.6231672782988499 -0.752441370588146 -0.2132944609806712
-0.5800099354500015 -0.7438069693053003 -0.3321741519025054
-0.540238068229659 -0.7019373017565732 -0.464140985087707
0 0 0
0 0 0
0 0 0
0 0 0
0 0 0
0 0 0
0 0 0
-0.4566318367725894 0.7298247221231524 -0.5087663910121755
-0.5417437416309447 0.757664704258479 -0.3639476807518011
-0.5887123856879126 0.7730337028340102 -0.2362977385003607
-0.6248104447970174 0.7707885733896631 -0.1244864779985373
-0.6560893128378776 0.7541463284714536 -0.02846276221569774
-0.6848305571326235 0.7267541730717036 0.0532492247857534
-0.7122496478708331 0.6911046756074035 0.122779340531944
-0.7389210543401317 0.6487011148452269 0.1821607505787876
-0.7649849411883696 0.6003688973646414 0.2331420743499346
-0.7902885784927804 0.5464880440176986 0.2771187118358656
-0.8144689696330111 0.4871964972216655 0.3150870841527468
-0.8370038688499458 0.4225712695259602 0.3476464377804562
-0.8572539674144465 0.3527836261590095 0.3750457951587919
-0.8745112238888497 0.2782174184211709 0.3972721829923215
-0.8880624305028991 0.1995298760542134 0.4141653632199015
-0.8972659921852041 0.1176466442537859 0.4255267398927164
-0.9016288638042632 0.03370951175935133 0.4311949220155301
-0.9008688442420983 -0.05099785241251562 0.4310853100294841
-0.8949524307153774 -0.135132013942423 0.4252052275836947
-0.8841030117302828 -0.2173761999970476 0.4136537831620617
-0.8687769870257066 -0.2965301468067599 0.3966061255821648
-0.8496092603422446 -0.3715967671596818 0.3742725576063206
-0.827336476772731 -0.4418475234620649 0.3468214529289151
-0.8027135838557213 -0.5068389470809912 0.314269285828786
-0.7764380899196631 -0.5663620260583953 0.2763656056041235
-0.7490844902152232 -0.6203335559256754 0.2325052814703475
-0.7210395612495601 -0.6686504071914237 0.1816826466005622
-0.6924242302242274 -0.7110166715738458 0.1224907267609891
-0.6629824661529032 -0.7467445876077909 0.05316738146913139
-0.6319174770110785 -0.7745174719358261 -0.0283370413785396
-0.5976885576316299 -0.792052995863076 -0.1241790635354738
-0.5576720869604278 -0.7958432631826798 -0.2358714562467114
-0.5057232571142342 -0.7824479064662848 -0.3633445484389404
-0.4153167159493548 -0.7557436961606194 -0.5063235044578984
0 0 0
0 0 0
0 0 0
0 0 0
0 0 0
-0.3809916744888398 0.7272857306617022 -0.5708772284353817
-0.4556091863610199 0.7841625454538372 -0.4213186105678307
-0.5138480747081848 0.8111414941607991 -0.2793020454083309
-0.5552454047462344 0.8170443751824555 -0.1553738378585671
-0.5879902851487941 0.8073523116992228 -0.04949413464805641
-0.6166831642198921 0.7861781947067612 0.04032023233264919
-0.6436331606615465 0.7563923320425747 0.1166490228164078
-0.6699910531903595 0.7196985010000597 0.182060584155767
-0.696244376347631 0.6769392012707153 0.2387406253390148
-0.7224518100279739 0.6284089884824832 0.2883843362281076
-0.7483733984622242 0.5740928096308041 0.3321967826519538
-0.7735471756312051 0.5138507965868174 0.3709206463922952
-0.7973383438938196 0.4475746521305086 0.4048808418867389
-0.8189816854262101 0.375324746655909 0.434051072437474
-0.8376330784431472 0.2974412557126293 0.4581479294921564
-0.852439357547896 0.2146119972175417 0.4767481854749189
-0.8626254521849861 0.1278824402931275 0.489411289926297
-0.867586802495269 0.03860767603668862 0.4957848197424772
-0.8669693829477154 -0.05164219965649157 0.4956784968564765
-0.8607208517525406 -0.1412072742328908 0.4891013402783694
-0.8491018988488327 -0.2284765275882229 0.4762608966864003
-0.8326547518441342 -0.3120215122359087 0.4575244694367717
-0.8121348662012678 -0.3907049533842387 0.4333435109716859
-0.7884202942750094 -0.463744143189566 0.4041470143805125
-0.7624171499160454 -0.5307147540537978 0.3702187722732473
-0.7349752499951354 -0.5914943686696614 0.331580749933807
-0.706816771577059 -0.6461605905401361 0.2879002303753943
-0.6784696569205633 -0.6948615901251648 0.2384246111600473
-0.6501903560554194 -0.7376659650484625 0.1819379699283433
-0.6218561604121752 -0.7743823501203245 0.1167342776546363
-0.5928040688843692 -0.8043217842498021 0.04061777068415356
-0.5615763686981353 -0.8259734896553734 -0.04898751377994587
-0.5254467324537201 -0.8366533341493203 -0.15465099356465
-0.4794127036791951 -0.8323094388474944 -0.2782525068285502
-0.4152540707839044 -0.8072239404329193 -0.4194681950867623
-0.3348057634944522 -0.7520665508745931 -0.5677156011476956
0 0 0
0 0 0
0 0 0
0 0 0
-0.4076733610171952 0.7678007149040902 -0.494251447048677
-0.4440453763872104 0.8272931798521874 -0.3441071029188383
-0.4827994793302096 0.8510622054464874 -0.2063923090113556
-0.5158712688062547 0.8521856046891815 -0.08750159530407617
-0.5444811826396969 0.8386724071133459 0.01299366376286967
-0.5707794353813443 0.8152515625078594 0.09785563843870879
-0.5962674351486597 0.7845266660457774 0.1702441072235269
-0.6217820742490827 0.7477326503423178 0.2329869862343406
-0.6476728811929331 0.7052568675993575 0.2883272267254461
-0.6739340192607852 0.6569982712291627 0.3378849053818392
-0.7002845297891768 0.6026138036279657 0.3826985511012374
-0.7262165184098843 0.5417009374867578 0.4232843757033716
-0.751029157456231 0.4739515450552343 0.4597011394268446
-0.7738649564165798 0.3992918930256661 0.4916289387275165
-0.7937624665662887 0.3180042176278894 0.5184732049406938
-0.809734103453426 0.2308111304590858 0.5394968987498213
-0.8208679041526036 0.1389007573645554 0.5539697316060367
-0.8264401502243439 0.04387874774038808 0.5613121534350547
-0.8260169830126975 -0.0523514635271096 0.561208756205006
-0.8195215468514727 -0.147762685434784 0.5536701391977626
-0.8072497615468373 -0.2404015013286105 0.539031483905647
-0.7898304642423003 -0.3285722841772409 0.5178881074376416
-0.7681400732811021 -0.4109735436575493 0.490980217761631
-0.7431925472729051 -0.4867643477612146 0.4590482626332547
-0.7160279671548598 -0.5555555310002115 0.422684281973143
-0.6876164192596809 -0.617337747135091 0.382201211309782
-0.6587819712504729 -0.6723684574004328 0.3375306976384557
-0.6301402018269092 -0.7210375907393211 0.2881460025445037
-0.6020356426484561 -0.7637177308259255 0.2329985248943842
-0.5744621367379844 -0.8005852409443777 0.1704597472615195
-0.5469485196306165 -0.8313772861556912 0.09828084726066671
-0.5183954728015089 -0.8550323499178395 0.01363137457765809
-0.4868908140529434 -0.8691546204219335 -0.08664629819020576
-0.4497968542844435 -0.8692118826541637 -0.2053131581965046
-0.40563137232801 -0.8472840269559533 -0.3428891474640138
-0.3634405105709946 -0.790013734792367 -0.4937502345470932
0 0 0
0 0 0
0 0 0
-0.2908838267089269 0.7590846740050876 -0.5823890942057208
-0.3697515657900657 0.8266784139761866 -0.4241303802624972
-0.4115206736283148 0.8686510342770747 -0.2758552443327218
-0.4434378358600243 0.8847100348346428 -0.1437046971767534
-0.4707349925488613 0.8817474237643411 -0.03049667973682119
-0.4956110737444751 0.8661066656095422 0.06503004973524495
-0.5195306816720402 0.8418917720181268 0.1459661433674368
-0.5434503664069416 0.8112688560033989 0.2156491190130313
-0.5679124166479717 0.7750901506956692 0.2769670473388939
-0.5931313808029883 0.7334023708526441 0.3321387173071824
-0.6190520946102311 0.6857977543838779 0.3826956287191101
-0.6453804508775473 0.6316546877147098 0.4295304751855514
-0.6715985012009837 0.5703206877413192 0.4729585249457504
-0.6969771690954534 0.5012746646278271 0.5127831280004701
-0.7206006498894428 0.424284271720796 0.5483772060810566
-0.7414160156149446 0.3395526029644219 0.5787973061528061
-0.7583170073469234 0.2478307070202563 0.6029388501550097
-0.7702609765356415 0.1504634982316995 0.619724748357074
-0.7764041170101524 0.049341797347939 0.6283009104912707
-0.7762278132157219 -0.05324772316515224 0.6281998582999402
-0.7696246136486314 -0.1548546565105922 0.6194336037245484
-0.7569199178132131 -0.2531325775041844 0.6024916067662074
-0.7388232866243776 -0.3460832412793107 0.5782443611892456
-0.7163236770483473 -0.4322267018806107 0.5477777540949834
-0.6905567457604154 -0.5106713409357886 0.5121973862014797
-0.6626741704145679 -0.5810869762221053 0.472441393117087
-0.6337359430139211 -0.6436057604605271 0.4291274631555081
-0.6046325353307243 -0.6986832444522405 0.3824411342170593
-0.5760314900242824 -0.7469446913882777 0.3320562459994919
-0.5483354868170551 -0.7890246564900588 0.2770709031057703
-0.5216362575132429 -0.8253862392365084 0.2159471484567238
-0.4956492024305159 -0.8560843620950539 0.1464630776212813
-0.4696188908945031 -0.8804189748167399 0.06573070893925403
-0.4422071954210609 -0.8964248472649272 -0.02958529235770322
-0.4114244818551043 -0.9002236836662606 -0.1425735427651517
-0.3745713395918062 -0.885637288128315 -0.2744866215922425
-0.3264216524021869 -0.84562251225986 -0.4223404688191131
-0.2411214134724849 -0.7794246934874207 -0.5782366394021314
0 0 0
0 0 0
-0.3191721392650203 0.7892956029718965 -0.5245394138157972
-0.347221085855057 0.8637678861177663 -0.3651610007233523
-0.3743677519742995 0.9011221029687169 -0.2186955459604646
-0.3984896720775424 0.9126265617517962 -0.09120712709337474
-0.4206872922017516 0.9070473453601602 0.01695038215037613
-0.4420789896394363 0.8904202703391614 0.1082492913995705
-0.4635057556514581 0.8663150624689155 0.1861736474838724
-0.4855306888692963 0.8364646698600552 0.2541393441441422
-0.5084778434737934 0.8013870070468467 0.3150065834752301
-0.5324634107081523 0.7608513629627794 0.3709284563561034
-0.557406953921 0.7141964316648556 0.4233449476699806
-0.5830260414783 0.6605535980381662 0.4730217532809413
-0.6088234389884458 0.5990278390467998 0.5200958259640265
-0.634078457886927 0.5288723918765588 0.5641263177290207
-0.6578562836282384 0.4496720473379391 0.6041689829292366
-0.6790498791957357 0.3615264591230284 0.6388973946716495
-0.6964653390946053 0.2652022074787319 0.6667861880604935
-0.7089510095892426 0.1622079374769709 0.6863505307216278
-0.7155542886364963 0.05474903384992637 0.6964083595896999
-0.7156734910427095 -0.05445722565652013 0.6963087424358069
-0.7091644372993218 -0.1624830905765067 0.6860648993693252
-0.6963697609428584 -0.2665421783637264 0.6663515762699935
-0.6780622024937539 -0.3643053861156668 0.6383676332619265
-0.6553204587303487 -0.4541096116781497 0.6036054646463738
-0.6293737856887631 -0.5350289081610056 0.5635891281064929
-0.601452994603253 -0.6068208437039895 0.519637141598979
-0.5726733942778571 -0.6697885130619706 0.4726822730508429
-0.5439581784326133 -0.7246039974334757 0.4231531011580797
-0.5159963334711318 -0.7721267567669816 0.3709016787894742
-0.4892211389014211 -0.8132285690022246 0.3151538859201801
-0.4637928651526473 -0.8486129785752998 0.2544645178154616
-0.4395705504977771 -0.8785948582670242 0.1866783494726378
-0.4160626240040907 -0.9027873880419438 0.1089349571957273
-0.3923610502623303 -0.9196387050357113 0.01781736336499631
-0.3671015818964942 -0.925800473846475 -0.09016602017796654
-0.3385763745074156 -0.9154525736375949 -0.2175146524851083
-0.3054317499429071 -0.8799079142673398 -0.3639691038213443
-0.2709715591154362 -0.8075090406752897 -0.5239308765268774
0 0 0
0 0 0
-0.3003110060356804 0.8296883157495329 -0.4705641277897629
-0.3127825410372138 0.8970086378679736 -0.3123180840306015
-0.3301747651537882 0.9285029034081146 -0.1699028628903637
-0.3481692357555637 0.9362318114996097 -0.04741495976530321
-0.3660989221080934 0.9288812496859993 0.05613557885216827
-0.3842479903912586 0.9119458847350665 0.1439033884071364
-0.403017114736674 0.8884597806567683 0.2195823840490235
-0.422720899175493 0.859753064401796 0.2865863040202431
-0.4435535699776018 0.8260499857028069 0.3477091481116313
-0.4655819231027588 0.7868836706781013 0.4050278529929686
-0.4887301574701913 0.7413732849333632 0.4599005170319723
-0.5127532998695519 0.6884244001775517 0.5129872305555596
-0.5372055346865414 0.6269050234125937 0.5642697095558131
-0.5614140784384865 0.5558331539499006 0.6130772687852407
-0.5844729783653122 0.474590430239775 0.6581453191245878
-0.6052734657529493 0.3831499431760692 0.6977393157186914
-0.6225848576671353 0.2822778264626537 0.7298680179944264
-0.6351892279204477 0.173646449495033 0.7525832547377025
-0.6420542011824951 0.05979602149040617 0.7643237786159909
-0.6425070869524223 -0.05608847151911536 0.7642242645837418
-0.6363615781855979 -0.170558851845263 0.752298889980811
-0.6239563516566691 -0.2803539810129554 0.7294382198359817
-0.6060934785164233 -0.3827980206773976 0.6972204605899972
-0.5838988015543228 -0.4760507203059631 0.6576001073901969
-0.5586481990771059 -0.5591747263752758 0.6125649476186512
-0.5316045991362485 -0.6320456454303102 0.5638393851707865
-0.5038954435037407 -0.6951646238763506 0.5126748752640606
-0.4764396444716985 -0.7494360820048822 0.4597290769190615
-0.449916595930746 -0.7959538165417551 0.4050093562360048
-0.4247610958161893 -0.8358109486099897 0.3478477679455455
-0.4011662522915207 -0.8699222224558665 0.2868814474653623
-0.3790786774073859 -0.8988246720302078 0.2200308280329271
-0.3581765824480505 -0.9224042223800032 0.1444990876143371
-0.3378385467621689 -0.9394846965874534 0.05686493822739848
-0.3171623699513181 -0.9472263105866181 -0.04658698980752293
-0.2952451939889694 -0.9403433011841543 -0.1690702556468812
-0.2723706093005013 -0.9102887567729735 -0.3117509109561467
-0.2538424235435744 -0.8447620903829602 -0.4711061819392047
0 0 0
0 0 0
-0.2508955994512408 0.8702028350299932 -0.4240264426681008
-0.2630260901591283 0.9269951759349028 -0.2673896402051135
-0.2777091893611451 0.9518915120415414 -0.1295382393258565
-0.2924607823667093 0.956204646257251 -0.01180530615855202
-0.3072478410895388 0.9475711595599471 0.08779328969821058
-0.3224383845714646 0.9306911971981723 0.1727639534531908
-0.3383697561158972 0.9080537922916438 0.2468688284308732
-0.3552856985186482 0.8806264150678597 0.3134791691848838
-0.373340728493621 0.848381022507239 0.3753216501847759
-0.3925995824850144 0.8106494780602197 0.4344110859005384
-0.4130191918971163 0.7663591443399441 0.4920455355058114
-0.4344159330536688 0.7142093532302367 0.5488057915761791
-0.4564253034270836 0.6528408793549036 0.604545059226035
-0.4784644980495946 0.5810354522457666 0.6583840272513499
-0.4997126453915638 0.4979608507625537 0.7087469669378474
-0.5191270461917096 0.4034473764587704 0.7534834598986268
-0.5355126823158092 0.2982455535024668 0.7901112307105461
-0.5476523282379264 0.1841846253227983 0.8161819350918507
-0.5544844448984263 0.064145471056977 0.8297182406748463
-0.5552909369626254 -0.05820208672352872 0.8296170757814689
-0.5498398601973866 -0.1788693038995293 0.8158933142639516
-0.5384346455715028 -0.294108012839469 0.7896762686265228
-0.5218537209943422 -0.4008984656289954 0.7529602341031534
-0.5012045382364305 -0.4972409299742107 0.7081987492290479
-0.4777411206393117 -0.5822130198679794 0.6578688479830168
-0.452695205630005 -0.6558348044369561 0.604109063074497
-0.4271533606938802 -0.7188245797501609 0.5484808383115385
-0.4019891057840833 -0.772326536705325 0.4918500579766874
-0.3778407522951151 -0.8176637575743296 0.4343527891639338
-0.3551167791416666 -0.8561345301036208 0.3754007718909223
-0.3340091562757069 -0.8888395021147721 0.3136912861466729
-0.3144977381783899 -0.9165043667729685 0.2472062263915617
-0.2963337682684528 -0.9392460159060774 0.1732143740813072
-0.2790015229686338 -0.9562192156563064 0.08833437491045285
-0.2616891328050225 -0.9650870105730202 -0.01121872519434096
-0.2434009071293827 -0.9613088138935861 -0.1290014059578399
-0.2236822123055212 -0.9373443639773985 -0.2671175981059908
-0.2057295380643094 -0.8817033825350771 -0.4245874496426487
0 0 0
-0.08280080363555474 0.8283844483481396 -0.5540065276260328
-0.1692777340777387 0.9062848055668599 -0.3872891683795772
-0.2014461366364722 0.9513252249290141 -0.2332375836952517
-0.219165384613647 0.9706676630353059 -0.09884746898494262
-0.2326206544107059 0.9724451654333973 0.01542826518915001
-0.2449217395601125 0.9630298227968823 0.1121913628344586
-0.2572244189467678 0.9464254505589758 0.1952292622322193
-0.2700500889491876 0.9246856181369739 0.2683830416944739
-0.2836783928274088 0.8984938441937143 0.3350154942519216