# OOMMF: rectangular mesh v1.0
# Segment count: 1
# Begin: Segment
# Begin: Header
# Title: 
# meshunit: m
# valueunit: (none)
# valuemultiplier: 1
# xmin: 0
# ymin: 0
# zmin: 0
# xmax: 9.357999999999999e-08
# ymax: 9.357999999999999e-08
# zmax: 2.3395e-08
# ValueRangeMaxMag: 1
# ValueRangeMinMag: 0
# meshtype: rectangular
# xbase: 1.16975e-09
# ybase: 1.16975e-09
# zbase: 1.16975e-09
# xstepsize: 2.3395e-09
# ystepsize: 2.3395e-09
# zstepsize: 2.3395e-09
# xnodes: 40
# ynodes: 40
# znodes: 10
# End: Header
# Begin: Data Text
0 0 0
0 0 0
0 0 0
0 0 0
0 0 0
0 0 0
0 0 0
0 0 0
0 0 0
0 0 0
0 0 0
0 0 0
0 0 0
0 0 0
0 0 0
0 0 0
-0.8873535612453444 0.07085548671338446 -0.4556129468614933
-0.8977830198741986 0.07309590289212931 -0.4343301028088524
-0.9082426231150902 0.03813934229169774 -0.4167022055696086
-0.9129006926804479 -0.01221706858982589 -0.4079988585016253
-0.9099147371840971 -0.06686200802455761 -0.409371033340317
-0.8994410263581345 -0.1171619554946939 -0.4210450288134088
-0.8837698330950562 -0.1518915619622042 -0.4425831396651006
-0.8697515029446072 -0.148584997160587 -0.4705898657476429
0 0 0
0 0 0
0 0 0
0 0 0
0 0 0
0 0 0
0 0 0
0 0 0
0 0 0
0 0 0
0 0 0
0 0 0
0 0 0
0 0 0
0 0 0
0 0 0
0 0 0
0 0 0
0 0 0
0 0 0
0 0 0
0 0 0
0 0 0
0 0 0
0 0 0
0 0 0
0 0 0
0 0 0
-0.8046880599879482 0.3335085438228402 -0.4911712301326295
-0.8347721233787549 0.3486091232399469 -0.4261774058107723
-0.8742064128473238 0.3172472233174489 -0.3675831158173383
-0.9129298528557828 0.2554093963724234 -0.3183160756377103
-0.9465776552158505 0.1606709437636769 -0.2795989815363268
-0.9607294509636448 0.1053752945859263 -0.256700154542264
-0.969173823913446 0.05130058826012678 -0.2409779008231943
-0.9723597852915407 -0.00680418880948292 -0.2333884122282713
-0.9697302144136745 -0.06662626649497014 -0.2349132858442655
-0.9613345401273384 -0.1245754041516777 -0.2455949320295607
-0.9477694298164678 -0.1782906140241816 -0.2644722383469524
-0.9282191852677454 -0.2328422460912632 -0.2901613904985607
-0.886527286124914 -0.3259448443186925 -0.3283737648139048
-0.8403644855027309 -0.386977114188385 -0.3795210726694365
-0.7944426864862484 -0.4174262664258197 -0.4411531819972656
-0.7599234710506372 -0.4008715948917712 -0.5116818176907192
0 0 0
0 0 0
0 0 0
0 0 0
0 0 0
0 0 0
0 0 0
0 0 0
0 0 0
0 0 0
0 0 0
0 0 0
0 0 0
0 0 0
0 0 0
0 0 0
0 0 0
0 0 0
0 0 0
0 0 0
0 0 0
0 0 0
-0.7522323571332156 0.4460578542932252 -0.4849524425189852
-0.7922496590998037 0.4616300219726391 -0.3990466144071206
-0.8510006964042118 0.4138714882664085 -0.3232772895204579
-0.8876424948122017 0.3805740514687981 -0.259334133411309
-0.9202905469517315 0.3345615113391134 -0.2028149509325447
-0.9494774151741165 0.2726275934729691 -0.1554568536649807
-0.9728429250894503 0.1981295634532526 -0.1196717142403551
-0.9867376662711345 0.1303603782711851 -0.09672098913259934
-0.9944935394337598 0.06474077406396928 -0.08240893275677236
-0.9971136567468869 -0.001414779780999479 -0.07591017011588135
-0.9946821299719123 -0.06796580958177541 -0.07738287305620778
-0.9871921287827986 -0.1338462950387489 -0.08681514944804156
-0.9744846092385739 -0.1989131565512812 -0.1039870304795205
-0.9552753076782105 -0.265834588409108 -0.1295417235706703
-0.9257057923318052 -0.3391952767367435 -0.1673778667650779
-0.8903440010052051 -0.4000205012861084 -0.2174193147465361
-0.8517924872030117 -0.4447316942267538 -0.2768813444324257
-0.8094053621052787 -0.4764054725027175 -0.3433668381843021
-0.7434954904358727 -0.5216741114866398 -0.4184143605400577
-0.6983348771623885 -0.504204473489255 -0.5080415812234411
0 0 0
0 0 0
0 0 0
0 0 0
0 0 0
0 0 0
0 0 0
0 0 0
0 0 0
0 0 0
0 0 0
0 0 0
0 0 0
0 0 0
0 0 0
0 0 0
0 0 0
0 0 0
0 0 0
-0.7347023815148211 0.5308607460267067 -0.4223733880400352
-0.7884993292885007 0.5207142849592656 -0.3273002309057304
-0.8306225295230031 0.500701015593666 -0.2436487357493954
-0.8717055342505108 0.4594834846032107 -0.1703067495254434
-0.9043845878291479 0.4125856523582748 -0.108910957966582
-0.9322154378347417 0.357429853837361 -0.05672986028876661
-0.9560573310139995 0.2928557108721697 -0.01378087166850186
-0.9750774351965728 0.2210660147992841 0.01880990354136445
-0.9880890940629315 0.1483667749298193 0.04083187836505672
-0.9956557238510518 0.07566166291559087 0.05426778351365686
-0.9981847686449915 0.002690264325787366 0.06016585512565912
-0.9957883934832258 -0.07034049754112687 0.05880212419430386
-0.9884607153437763 -0.1429237715393349 0.05018176711756281
-0.976050730935926 -0.2148625334966529 0.0340450046092512
-0.9580528726715251 -0.2864384974271108 0.009363779020082058
-0.9338212619303558 -0.3568027669856995 -0.02587733058385536
-0.9048011007558133 -0.4197519642374612 -0.07171650151716179
-0.8718454081681942 -0.4730721050766806 -0.1268399292587005
-0.8338495518800366 -0.5179535573351716 -0.1908377249741326
-0.786765846935177 -0.5570107371699741 -0.2659671798807799
-0.7387482517524108 -0.5748887630872701 -0.3517867686663967
-0.6789915384542943 -0.5818055528697792 -0.4477418780473417
0 0 0
0 0 0
0 0 0
0 0 0
0 0 0
0 0 0
0 0 0
0 0 0
0 0 0
0 0 0
0 0 0
0 0 0
0 0 0
0 0 0
0 0 0
0 0 0
-0.6049435822174904 0.6301357073163241 -0.4867979588071686
-0.6583980662338608 0.6546155907433433 -0.3714706108634382
-0.7419286679308309 0.6137376712277098 -0.2699405909054247
-0.7941669890855398 0.5801737966646048 -0.1808235579524561
-0.8335895145265467 0.5426617158712647 -0.1031832515433117
-0.8676962159463414 0.4957909859475862 -0.03598020407835213
-0.8968047331318916 0.4419423534709983 0.02069364252014488
-0.9219960357639926 0.3811420210052706 0.06822074361585272
-0.9435943236714072 0.3133241073798779 0.1070409083934819
-0.9611348077475955 0.2397629664810101 0.1368707464735178
-0.9739102585369425 0.1631127846703442 0.1577752445524688
-0.9816626929067103 0.08487394908252781 0.1706891037010914
-0.984308070617525 0.005823439178305498 0.1763624383856761
-0.9818117718309509 -0.07334966200841944 0.175115595471731
-0.9741936413580038 -0.1519144120169284 0.1669393918737677
-0.9615196251964609 -0.2291931553357562 0.1514942504166297
-0.9438923640507626 -0.3044373291525588 0.1280043659611605
-0.9216028883087238 -0.3762041347869133 0.09549117880855368
-0.8954373898011651 -0.4419199114409834 0.05383932408629732
-0.8658030765529235 -0.5003731714950702 0.003423723040314216
-0.8321518038372262 -0.5517111844650237 -0.05601914232341281
-0.7930792433388707 -0.5960045048607548 -0.1257137381940825
-0.7481229264088134 -0.6309186690187895 -0.2055570968492017
-0.6891406248445541 -0.6615735898483628 -0.2956443545951917
-0.5966332542547114 -0.6987427535043185 -0.3946990300756208
-0.5365515609020729 -0.6712601039651218 -0.5113925061225307
0 0 0
0 0 0
0 0 0
0 0 0
0 0 0
0 0 0
0 0 0
0 0 0
0 0 0
0 0 0
0 0 0
0 0 0
0 0 0
-0.5642338678084884 0.6764969784402379 -0.4732779105125245
-0.6293302845349665 0.6925380760305961 -0.3526108424523813
-0.6821004771419686 0.6904436368520863 -0.24088695152117
-0.7361533318748141 0.6619838583376219 -0.1409100538288328
-0.779310824815915 0.6241430843537561 -0.05585739501729179
-0.8146913499173524 0.5796615621998115 0.01644620557805442
-0.8455320779729634 0.5281797421183528 0.07811315596307833
-0.8729263434209005 0.4701312168623848 0.1302928927198604
-0.8973287079886958 0.405579734125196 0.17408695840376
-0.9186513158533973 0.3346255544868837 0.2100130904614442
-0.9363426861492771 0.258025195555965 0.2380869012630935
-0.9496523683025834 0.1772431754671436 0.2583509940519242
-0.9579596499598645 0.09370502979775512 0.2711690919691536
-0.9608558993074265 0.00865712329267212 0.2769133347861953
-0.9581569411359093 -0.07670628008896511 0.2757742242269754
-0.9499136739024245 -0.1611892707595553 0.2677350016811409
-0.9364084716367066 -0.2436111427607921 0.2525723369052669
-0.9181396673253845 -0.3227593670710325 0.2298824531179749
-0.8958049389008611 -0.3972708032278453 0.1992722267239632
-0.8701966617765692 -0.4657662756507464 0.1606846174944807
-0.8418038533110973 -0.5275783184421033 0.1141375944217786
-0.8105292771340857 -0.5827006882209883 0.05917937863210963
-0.7756337902861126 -0.6311616028086021 -0.005220584878588377
-0.7356803034150347 -0.6725754273559471 -0.08010484182698999
-0.6869085016940386 -0.7072441010064625 -0.1672198908384144
-0.6258492976431539 -0.7323559839179036 -0.2682673469865651
-0.5659507264315001 -0.7311664742019075 -0.3809138514871943
-0.4938839116842572 -0.711189926492658 -0.5002874875857123
0 0 0
0 0 0
0 0 0
0 0 0
0 0 0
0 0 0
0 0 0
0 0 0
0 0 0
0 0 0
0 0 0
-0.5034293349456136 0.7198117792308265 -0.4779434142205211
-0.5736822539768041 0.7411612070046322 -0.3486670857760024
-0.6277460892200507 0.7437418911221536 -0.229745178097331
-0.6724628607186869 0.7297591486782068 -0.1234718019407605
-0.7134115107688697 0.7000907733759528 -0.03028077502870173
-0.7494099992443601 0.6602820275598293 0.04911514139294121
-0.7813884524538027 0.6130761522506006 0.1164891321688381
-0.8105957183498609 0.5591784289705612 0.173936959749466
-0.8375989987555638 0.4987186996995907 0.2229519586225381
-0.8624134196585854 0.4315819810882363 0.2645374967613049
-0.8846077253481809 0.3577521622063853 0.2991363613654702
-0.9034013415848919 0.2776747845849343 0.326745665661118
-0.917839143165154 0.1923693162425259 0.3472252200549934
-0.9270225746283219 0.1032146972725281 0.3605216670276796
-0.930287044940041 0.01179093046368801 0.3666428616181232
-0.9273130501931783 -0.08019492940114076 0.3655944204166271
-0.9181809362805389 -0.1709921327277348 0.357359005477983
-0.9033656864201243 -0.2589128858056138 0.3418984559229631
-0.8836706581058011 -0.342420760652678 0.3191773655460257
-0.8601002616093494 -0.4202084895794489 0.2892271862479153
-0.8336571176024001 -0.4913492880523996 0.2521739229207843
-0.8050793417342922 -0.5554955108207082 0.2080192081773188
-0.7746549176460455 -0.6127570532280359 0.1563283476727484
-0.7421289558881995 -0.6633299946342581 0.09611415634965309
-0.7066032212040431 -0.7071345380681754 0.0259351663803846
-0.666404774783344 -0.7434726133049101 -0.05615291097999917
-0.6202482252715226 -0.7696001313561767 -0.1516831462756555
-0.5693437078746604 -0.780003130320845 -0.259697629933767
-0.5079762366044953 -0.7736299607822319 -0.3787569495404878
-0.4301625078364476 -0.747924708670046 -0.5055381756234486
0 0 0
0 0 0
0 0 0
0 0 0
0 0 0
0 0 0
0 0 0
0 0 0
0 0 0
-0.4436944998249474 0.7408624087090085 -0.5042401037075249
-0.510370030325047 0.7784486054842915 -0.3654315267811081
-0.5632533497917582 0.7916691299557606 -0.2366551343695122
-0.6062475913691486 0.7858018806777379 -0.1223897964800803
-0.6430435079888549 0.7654885730949911 -0.02285369323285427
-0.6766296093489567 0.7336073239725971 0.06318754597262836
-0.7078960696375658 0.6929203055463391 0.1369109373032499
-0.7374866049723535 0.645017163752552 0.2001658461150773
-0.7658726364472354 0.5903417623040771 0.2548248583264137
-0.7931372124330465 0.5287367195115416 0.3022761050663934
-0.8189436182850158 0.4598386912434164 0.3433361736050948
-0.8425664004635146 0.3834159505549258 0.3782513313526054
-0.8629602974021335 0.2996734418938934 0.4068112010885246
-0.8789008664495793 0.209429740654443 0.428570240081589
-0.8891984272117659 0.1141121347860586 0.4430627243841325
-0.8929307154024446 0.01565541936889743 0.4499218213592912
-0.8896362740805885 -0.08366146003028037 0.4489410428392676
-0.8794222072130765 -0.1814437665459749 0.4401076471070344
-0.8629551334300527 -0.2754413185846768 0.4236041993453961
-0.8413349782644773 -0.36377761302012 0.399776565864102
-0.815882042780713 -0.4451104614286718 0.3690706834669005
-0.7878846060698356 -0.5187224564394384 0.3319109228446909
-0.7583695315060033 -0.5845102718790097 0.2884846542734821
-0.7279565173715659 -0.6427960402190819 0.2385216122176963
-0.6967891895968964 -0.6940148082566077 0.1811857366942667
-0.6645026860233387 -0.7383696819905751 0.1150929753933952
-0.630257246325449 -0.7754345259242315 0.03843305164730254
-0.5929996654131474 -0.8036184671988564 -0.05048520572261923
-0.5514548646800599 -0.8201429452906396 -0.1525223967510714
-0.5022244048153596 -0.8220686009405629 -0.2682794486267684
-0.44168816057677 -0.8046760623896974 -0.3967467749375169
-0.367303632925819 -0.7624848856554753 -0.532639503216248
0 0 0
0 0 0
0 0 0
0 0 0
0 0 0
0 0 0
0 0 0
0 0 0
-0.4644908555680963 0.7886367287611632 -0.4028651823408282
-0.4989122076070605 0.8260295068914646 -0.2622248326251589
-0.5361498980903856 0.8327576751752991 -0.1380505024050962
-0.5697121356064032 0.82127376119324 -0.03061848654489454
-0.6000957123909484 0.7975403142987942 0.06176231082286569
-0.6288207425945795 0.764586747631001 0.1413915804772302
-0.6568438607846383 0.7240863383038411 0.2103690025437819
-0.6846779262590459 0.6767224523578486 0.2706711284352127
-0.7124948348566462 0.6224097032171716 0.3239710969264273
-0.7401109984958528 0.5606046438605339 0.3714271707717078
-0.7669619972886481 0.4906165807618735 0.4135996438544588
-0.7920969868002281 0.4119186425861079 0.4504502141103022
-0.814218079761181 0.3244580412214724 0.4814310937992476
-0.831804064462597 0.2289106764608353 0.5056697544304445
-0.8433373333580841 0.1268110106835316 0.5222079181072385
-0.8476010130038745 0.02051872092785915 0.5302372156368221
-0.8439655380550567 -0.08700321671160161 0.5292944462747291
-0.8325626595737085 -0.1925815029901965 0.5193763400363843
-0.8142717187854694 -0.2932958849002445 0.5009382116456473
-0.7905205246344292 -0.3868657331873961 0.4747759520206184
-0.7629788891949938 -0.4718600807771719 0.4418272046985491
-0.7332480106358269 -0.5477149925956432 0.4029337933017734
-0.7026272358463677 -0.614587747059937 0.3586040554855499
-0.6719900280703623 -0.6730914636551176 0.3088321287181837
-0.6417449913232034 -0.7239795343673038 0.253015809642171
-0.6118378462051504 -0.767831806588972 0.1899704364930439
-0.5817702678989566 -0.8047428566854283 0.1180351219025596
-0.5506150762615287 -0.834011712460778 0.03531998402818365
-0.516924541507806 -0.85392134550625 -0.06006125269872173
-0.4786599809743561 -0.8613809399987186 -0.1700220539240492
-0.4351397682187227 -0.850383321369007 -0.2958066747927977
-0.3940581384057266 -0.8083898986203115 -0.4372916136456943
0 0 0
0 0 0
0 0 0
0 0 0
0 0 0
0 0 0
0 0 0
-0.3299171231016721 0.8348242932068297 -0.4407074895619912
-0.4149361833810897 0.8597293800982679 -0.2978142990472114
-0.459739456908166 0.8721363039083451 -0.1673854807528863
-0.4928691314420821 0.8685173989071203 -0.05251235156738886
-0.5209765885086047 0.8522917388278325 0.0467138753665865
-0.5467876621346666 0.8267684989536667 0.1322009896907201
-0.5719251008172609 0.7938922739157046 0.2064866496219965
-0.5973398556288576 0.7544772220107765 0.2719360556163825
-0.623501619762506 0.7085120693850354 0.3305395251543539
-0.6504993538686854 0.6553927036081424 0.383811144540687
-0.6780599181290613 0.5941490233829418 0.4326912125753269
-0.7055206206366337 0.5236933440924533 0.4774787274944949
-0.7317956997246419 0.4431149927777823 0.5178070654597785
-0.75538363444874 0.3520276308355846 0.5526953156444309
-0.7744729741895193 0.2509272341982565 0.5807126099781655
-0.7871906738033977 0.1414647924656358 0.6002654042751479
-0.7919801928854979 0.02650394245419887 0.6099712412166934
-0.7880082201377165 -0.09015149846482723 0.6090285316140239
-0.775429221036156 -0.2043595923192281 0.5974501487073031
-0.7553663291413902 -0.3123800399989647 0.5760559169123303
-0.7296151976704595 -0.4114579932673515 0.5462270435493835
-0.7002184856663493 -0.5000710761222442 0.5095321296611871
-0.6690801244092017 -0.5778487949283299 0.4673569913036967
-0.6377169347370165 -0.6452840344598376 0.4206252798166777
-0.6071563224956537 -0.7033673632740393 0.3696424655453962
-0.5779311678809965 -0.7532376847032362 0.3140518357446985
-0.5501100462382407 -0.7958875494136814 0.2528674469283162
-0.5233144820375142 -0.8319140497393211 0.1845561343768613
-0.4966857751208151 -0.8612895804586227 0.1071610908214553
-0.4687721523418771 -0.8831264936182392 0.01844628575939507
-0.4373544863671749 -0.8953726192399655 -0.08383869017266382
-0.399142445431511 -0.8945729024381811 -0.2010587736913795
-0.3472301681105661 -0.8770385958464918 -0.3320158305706545
-0.253385266479276 -0.8455282466192496 -0.4699764790925211
0 0 0
0 0 0
0 0 0
0 0 0
0 0 0
-0.2410591404213175 0.8271194075048854 -0.5077046154488868
-0.3160987302501887 0.8789088899700286 -0.3572124799973684
-0.3729077941429117 0.902636660428893 -0.2149112289231129
-0.4110285675034246 0.9071878431941093 -0.08980943077930173
-0.4393784321120614 0.8981242651971854 0.01787169994046177
-0.4631757078735864 0.879387580439178 0.110207744760202
-0.485236945976956 0.8534779570861628 0.1900538950587072
-0.5071796484836023 0.8215924304943782 0.2602972960258886
-0.5299391313478595 0.7839303104440425 0.3234467273499342
-0.5539926469812132 0.7399685835253099 0.3814952719055569
-0.5794516286065544 0.6886627372195784 0.4358663149068178
-0.6060713730677239 0.6286213288337807 0.4873527630813793
-0.6332057293767478 0.5583118682814073 0.5360395153536585
-0.6597408066044914 0.4763505282757682 0.5812333802460516
-0.6840603617193667 0.3819067246434108 0.6214568972957906
-0.7041190200322927 0.2751969574938886 0.654586159504515
-0.7177015081675242 0.1579460379953011 0.678201735662515
-0.7228882174017085 0.03358780679755792 0.6901481611772284
-0.7186122491324723 -0.09304516866111988 0.6891582053386529
-0.7050475363735309 -0.2166027135972326 0.6752712313699802
-0.6835836034303731 -0.332348168425942 0.6498139364964926
-0.6564002969301372 -0.4370004015037537 0.614954713190805
-0.6258950760604755 -0.5289973852806903 0.5730768884970358
-0.594215293781962 -0.6082636435829567 0.5262352368768189
-0.5630028200531604 -0.6757353188653854 0.4758251816056862
-0.5333265722763557 -0.7328646943325322 0.4224595922746183
-0.5057212176454943 -0.7812188718547962 0.3659824097973527
-0.4802522039435297 -0.8221930353156542 0.3055428501631371
-0.4565516345772939 -0.8568046208834424 0.239679883589718
-0.4337902695822497 -0.8855151714324673 0.166399769166567
-0.4105616991570382 -0.9080231750808632 0.0832646665840517
-0.3846454494040503 -0.9229810290939868 -0.0124055707390189
-0.352530944175415 -0.9276810812344748 -0.1230030280864082
-0.3083817830699048 -0.9179169260460237 -0.2496581517772736
-0.2432149106928747 -0.8879261146579078 -0.3904276144500647
-0.1596554735953646 -0.829474064422676 -0.5352409795607633
0 0 0
0 0 0
0 0 0
0 0 0
-0.257495451353499 0.8593108482259398 -0.4419060518407426
-0.2928670391999423 0.9123481416713182 -0.2860939806062882
-0.3286243981617838 0.9329704219584858 -0.1468747653050381
-0.3569112326788081 0.9337426941176667 -0.02718369308196692
-0.3794053942839753 0.9222282682314905 0.07447528491363165
-0.3987795677582556 0.9027446964504686 0.161328451827598
-0.4170430814234706 0.8774778061070878 0.2368707833953097
-0.4355266203676066 0.847193859962625 0.3042681820249993
-0.4550696804724865 0.8116971185912613 0.366141193510526
-0.4761497093022345 0.7701098206794466 0.424514214631816
-0.498935497370408 0.7210400520083451 0.4807958120278776
-0.5232748809574937 0.6627111347382219 0.5357213369401098
-0.5486277815376458 0.5931292877266302 0.5892412115305421
-0.5739663650315024 0.5103682371041656 0.6403802576342511
-0.5976907492195447 0.413036874005105 0.6871435868939404
-0.617648797542476 0.3009362344941774 0.7265998525067277
-0.6313766110498507 0.1757711962910692 0.7552933612667407
-0.6366324321580665 0.04157727088245389 0.7700457628417102
-0.6321171770086903 -0.09559236990271458 0.7689538174344062
-0.6180174299864164 -0.2289154764419921 0.7520985047706983
-0.5959738380290863 -0.3524861486995645 0.7215044693969875
-0.5684991490214309 -0.4624867603583847 0.6803783609544873
-0.5382483972433634 -0.5574207416448871 0.6321161124738194
-0.5074865343624464 -0.6376439814186573 0.5795408272083651
-0.4778515369713487 -0.7046460540410806 0.5245301203348134
-0.4503397081760999 -0.760402412276183 0.4679554665183713
-0.425395281252772 -0.8069181215441883 0.4097828691044476
-0.4030120496748623 -0.8459504241000169 0.349212210241663
-0.3827943079238764 -0.8788424197099358 0.2847885516299157
-0.3639525098181481 -0.9063896078549125 0.2144678282859417
-0.3452237395576329 -0.9286637898169605 0.1356618410926347
-0.3247178639523801 -0.9447234205649563 0.04534277744307168
-0.2997400808703177 -0.9521546354600874 -0.05964422932457927
-0.2669317952036268 -0.9464017870535146 -0.1818545412445954
-0.2243766136530019 -0.9198388516170161 -0.3217943789153253
-0.1814611595602763 -0.860419263082411 -0.4761833042933781
0 0 0
0 0 0
0 0 0
-0.1315109174619962 0.8397293320296042 -0.5268391856320278
-0.2104152912098684 0.904146325027288 -0.3718128940269764
-0.2498186217310752 0.9423565873193636 -0.2226088914940013
-0.2771634020044476 0.9565988873609557 -0.08999454032941147
-0.2979412647288361 0.9542964672318838 0.02343619850844548
-0.3147237646918502 0.9416251134198866 0.1195453793133548
-0.329423820385389 0.9223501168130778 0.2018668090043436
-0.3434660586941368 0.8982766731210063 0.2740986775812171
-0.3578655551707232 0.8698646367017432 0.339511057607987
-0.3733209004642339 0.8366635038636049 0.4007813450988562
-0.3902789194740711 0.7975603662533278 0.4599780725165153
-0.4089553865473617 0.7509062939947398 0.518551086637549
-0.4293073069673821 0.694598892211459 0.5772587072734611
-0.4509549316743405 0.6262070487674312 0.6360065893310971
-0.4730615127395956 0.5432391726999762 0.6936166134175061
-0.494206695644426 0.4436624761661808 0.7476117636997897
-0.5123410010850057 0.3267306278342715 0.7942000978608832
-0.5249665864129061 0.1939991165561515 0.8287185444560856
-0.529681291589046 0.05007770469387408 0.8467171622408233
-0.5250262024877522 -0.09761667769397038 0.8454693790654282
-0.5111875015635258 -0.2405612940043638 0.8251167202718568
-0.4899602126077888 -0.3715655196851083 0.7885924515505238
-0.4640150245708926 -0.4863306266086599 0.7403867763506462
-0.4360509350736061 -0.583567258560292 0.685061191980584
-0.4082500419029289 -0.6641926626746072 0.6262427725215454
-0.3820924620592577 -0.7303224471571057 0.5662459479907567
-0.358402307861579 -0.7844689169951499 0.5061188634974497
-0.3374802185611838 -0.8290442712636494 0.4458617480394787
-0.3192294346007964 -0.8661046575462902 0.3846495681280284
-0.303232853824393 -0.8972281685852929 0.3209851240456401
-0.2887683267406068 -0.9234278008873077 0.2527725262362588
-0.2747631117486959 -0.9450155700229891 0.1773437476662153
-0.2596984946308405 -0.9613434581973881 0.09151746973972559
-0.2415026168014354 -0.9703658967692057 -0.008155517479209871
-0.217527821754107 -0.9680584367015618 -0.1246776238698876
-0.1846106970639558 -0.9480801372797264 -0.2589651401737592
-0.1373335298186096 -0.9030926196597228 -0.4068946078577346
-0.0496085337570118 -0.831075089580247 -0.5539433083427069
0 0 0
0 0 0
-0.1522490955813915 0.8620263582715114 -0.4834571031020267
-0.1798223590678356 0.9304083469672857 -0.31938100612416
-0.2034575920488291 0.9639374015313402 -0.1715508500902848
-0.2214655094392123 0.9741722481872327 -0.04406199031662475
-0.2353245748151637 0.9698255343939083 0.06372422871743579
-0.2465269180563104 0.9566760716588905 0.1549043982234531
-0.2563067228587492 0.9379973077741073 0.2333836207319062
-0.2656285439426441 0.9152425207920565 0.3029399359231332
-0.2752232245558533 0.8886367285282827 0.3668472998069207
-0.2856317266749288 0.8575608272501112 0.4277896028222321
-0.297235030658052 0.8207520889541223 0.487870213301807
-0.3102592154553494 0.7763854837838847 0.5486025882136301
-0.3247477024964409 0.7221094489286538 0.6108165628822114
-0.3404924172934935 0.6551241218588861 0.6744459197921332
-0.3569208770151712 0.5724199797685243 0.7382024480537319
-0.372957719003929 0.471324944027419 0.799221707020609
-0.3869289230773164 0.350480681526822 0.8529063842900474
-0.3966521209465324 0.2111731522093262 0.8933493128304257
-0.3998956243690537 0.0584849932880831 0.9146928419806164
-0.3952300730133774 -0.09879367917502406 0.9132540710781979
-0.382819977232925 -0.2503577915152788 0.8892524058213025
-0.3643892027328554 -0.3877546180147937 0.8466799071313283
-0.3424230839281318 -0.5063341280394476 0.791436783562452
-0.3193246724156665 -0.6051441517945851 0.7292683382236191
-0.2969377127748132 -0.6857242294910106 0.6645376406352178
-0.2764334622049861 -0.7508051012035752 0.599896858618257
-0.2583988571062936 -0.8033805735148254 0.5364789695273722
-0.2429820833216545 -0.8461960223076259 0.474248878770862
-0.2300168612559882 -0.8815275074424214 0.4123123781313077
-0.2190967330306495 -0.9111074335505437 0.3491129704039047
-0.2095958115101235 -0.936083532193723 0.2825194091618051
-0.2006419530330505 -0.9569264207603282 0.2098443040301782
-0.191054060451111 -0.9732154739953102 0.1278670683218563
-0.1792699034455004 -0.9832467532389242 0.03298672405308899
-0.163326849679177 -0.9834605861077537 -0.07829186258142547
-0.1410249037634342 -0.9678467968521376 -0.2082895924946097
-0.1106628231775509 -0.9277332370894474 -0.356461471081951
-0.07538224441125986 -0.8522301784039159 -0.51770767837183
0 0 0
0 0 0
-0.1283982807720239 0.890878439580614 -0.435717210338539
-0.1392353832426816 0.9520773200087408 -0.2723275321707977
-0.1516855063226749 0.9799833966139532 -0.1289342837751575
-0.1619722831242026 0.9867695908262683 -0.007124192592279826
-0.1697760477437844 0.9808668944869816 0.09526924431296913
-0.1756986815257321 0.9674758101564707 0.1819904669816515
-0.1804570828521799 0.9493880554926702 0.2570944599487271
-0.1846761392988855 0.9277448096869269 0.3243212784764914
-0.1888563327107174 0.9025858656741962 0.3868747092796583
-0.1933843921796379 0.8731772197893036 0.4473969375200657
-0.1985474350710474 0.8381645257406545 0.5079952202694935
-0.2045374599225975 0.7956144376778989 0.5702298607113557
-0.211438429933119 0.7430110099331244 0.6350027003608534
-0.2191874870549451 0.6772930556897019 0.7023040383146349
-0.2275026050803952 0.5950597674809683 0.7708089502640256
-0.2357794983317573 0.4931232176003893 0.8373992598694264
-0.2429931545605646 0.3695860488718259 0.8968614604920971
-0.2477033141020342 0.225430133026954 0.9422443012861994
-0.2483296785292341 0.06605057302739807 0.9664210741515932
-0.2437937617599926 -0.09861432664234171 0.9648004023153125
-0.234210056637211 -0.2567006815678131 0.9376835337429222
-0.2208686658641154 -0.3987383885034696 0.890070070260236
-0.2055835266111853 -0.5199000113078759 0.8291196486805616
-0.190052518173325 -0.619607713871983 0.7615551990803506
-0.1755275732163127 -0.6999474160099375 0.6922887301276854
-0.1627587740355552 -0.764137490919132 0.6241822461799567
-0.1520765134480752 -0.8155232730372123 0.5583856420003557
-0.143504768927634 -0.8570738004551538 0.4948038822284896
-0.1368519301510065 -0.8911994367259628 0.4324755636949561
-0.1317621686276468 -0.9197194112290085 0.3698039149699539
-0.1277271663663093 -0.9438591510940219 0.3046566491447459
-0.1240637990321686 -0.9641958653139119 0.234381115026919
-0.1198677142466565 -0.9804884548590093 0.1558015435400877
-0.1139673948085275 -0.9913362331060226 0.06529858996730631
-0.104950867857838 -0.9936370075368256 -0.04087557448095826
-0.09147671709584904 -0.9818991120873815 -0.165849763073021
-0.07348216126697632 -0.9476253209177885 -0.3108160599631106
-0.05591663256731647 -0.8791593905357876 -0.4732357723535637
0 0 0
0 0 0
-0.0751917167639766 0.9176414292820927 -0.3902312301638649
-0.08459557360270727 0.9691901504068479 -0.2313310210092454
-0.09308159269781648 0.9911890846857658 -0.09423383416072532
-0.09875900344150487 0.9948762397004318 0.02163161849629608
-0.1018854141217538 0.9876518105255438 0.1190095103546501
-0.1030823488525594 0.9739956519203912 0.2017585175282839
-0.1029264013652691 0.9562454086229257 0.2738628751575665
-0.1018765556969567 0.9352777365673899 0.3389346882228265
-0.1002801292356465 0.9109868991948288 0.4000584521990156
-0.09839263292282888 0.8825585042331183 0.4597927537405453
-0.09639703568994233 0.8485848982662376 0.5202031160466751
-0.09442004335208659 0.8070782857688781 0.582846031172692
-0.09254438832399831 0.7554426582934095 0.6486462257812986
-0.09081427455467442 0.6904871936876512 0.7176212112880025
-0.08922847976362334 0.6086114057728169 0.7884354349991556
-0.08771457398342714 0.5063552666440889 0.8578522585228175
-0.08608414530366215 0.3815238328545683 0.9203418304582798
-0.08399385080056444 0.2349115414758317 0.9683809171545774
-0.08098494692879449 0.07205849908829606 0.9941071426562038
-0.07669289352292999 -0.09646036107547504 0.9923777500650995
-0.07115500190786753 -0.2578858975842317 0.9635516745513267
-0.06483712346234974 -0.4022211746786788 0.9132438196129395
-0.05841710199547549 -0.5246081090699442 0.84933725580155
-0.05254711209675308 -0.6247183426621307 0.7790800943110864
-0.04770982372833524 -0.7049440731251353 0.707656432519026
-0.04417839525668713 -0.7687521869008556 0.6380190784982024
-0.04203843496094595 -0.8196521958502806 0.5713169416565965
-0.04122841233022071 -0.8607079396250769 0.5074269018125506
-0.04157233267472601 -0.8943813421339124 0.4453692355773163
-0.04279361369381252 -0.922525303296675 0.3835567381814614
-0.0445070065315676 -0.9464046689369616 0.3199020615499664
-0.04618841050725351 -0.9666679877346488 0.2518325479834924
-0.04712489814429045 -0.9832122031237159 0.1762753743535903
-0.04635579987198288 -0.9948893023008241 0.08970181706970813
-0.04264507414255574 -0.9990225715322245 -0.01163181931242686
-0.03461781643169862 -0.9907699388808104 -0.1310592804635209
-0.02149549896576136 -0.9625098636357439 -0.2703936129573221
-0.005991364280365734 -0.9033094989514131 -0.4289476106218642
0 0 0
0.09416269912659112 0.8605001262882684 -0.5006724665398216
0.009460079331903553 0.9371343447605175 -0.3488405463378778
-0.01896402992433463 0.9796356104295562 -0.1998860584116342
-0.02974539451078412 0.9971769950095016 -0.06894383314856872
-0.03323003165972048 0.9985647452331903 0.04200255436598253
-0.03277299152446 0.990258911294307 0.1353263449175771
-0.02976225571547598 0.9762040311747959 0.2148019963892428
-0.02491214607162845 0.9584084927174509 0.284310650636182
-0.01864259972215782 0.9375553835489465 0.3473360854474909
-0.01121175565087586 0.9134323451010762 0.4068361432547175
-0.002775049469423497 0.8851699737939481 0.4652595153181316