# OOMMF: rectangular mesh v1.0
# Segment count: 1
# Begin: Segment
# Begin: Header
# Title: 
# meshunit: m
# valueunit: (none)
# valuemultiplier: 1
# xmin: 0
# ymin: 0
# zmin: 0
# xmax: 9.357999999999999e-08
# ymax: 9.357999999999999e-08
# zmax: 2.3395e-08
# ValueRangeMaxMag: 1
# ValueRangeMinMag: 0
# meshtype: rectangular
# xbase: 1.16975e-09
# ybase: 1.16975e-09
# zbase: 1.16975e-09
# xstepsize: 2.3395e-09
# ystepsize: 2.3395e-09
# zstepsize: 2.3395e-09
# xnodes: 40
# ynodes: 40
# znodes: 10
# End: Header
# Begin: Data Text
0 0 0
0 0 0
0 0 0
0 0 0
0 0 0
0 0 0
0 0 0
0 0 0
0 0 0
0 0 0
0 0 0
0 0 0
0 0 0
0 0 0
0 0 0
0 0 0
-0.8368870975019151 0.02133852624352965 -0.546959462238815
-0.8464382192989891 0.03987429485298843 -0.530991884608355
-0.8565772276530013 0.02068813628797558 -0.5156039701973097
-0.8616874891728717 -0.0141553023285144 -0.5072418539700166
-0.8600164350269963 -0.05347021568333822 -0.5074570597777047
-0.8516673069721763 -0.08861528255945446 -0.5165366685257381
-0.8386670963989101 -0.1082986634166808 -0.5337685836764666
-0.8272019792237222 -0.08980984392546468 -0.5546810592605808
0 0 0
0 0 0
0 0 0
0 0 0
0 0 0
0 0 0
0 0 0
0 0 0
0 0 0
0 0 0
0 0 0
0 0 0
0 0 0
0 0 0
0 0 0
0 0 0
0 0 0
0 0 0
0 0 0
0 0 0
0 0 0
0 0 0
0 0 0
0 0 0
0 0 0
0 0 0
0 0 0
0 0 0
-0.7831583086276217 0.2325379200695359 -0.5767054528589586
-0.8108960772689524 0.2620275030044845 -0.5232486402648932
-0.8476117486864829 0.2446099409358827 -0.4708718512334176
-0.8839017568826428 0.1962966957082083 -0.4244823805929003
-0.9155492391495553 0.1143913257853325 -0.3855959222784177
-0.9284368568700293 0.07361969263680589 -0.3641224294950292
-0.9363553662852773 0.03459209139604773 -0.3493451233974954
-0.9397924316364596 -0.008307715508698209 -0.3416447969775867
-0.9382428238466419 -0.0529865842030196 -0.3418959277247611
-0.931745348700815 -0.09606001448666383 -0.3501757827023705
-0.9208333595082915 -0.1353932982368018 -0.3656973869324653
-0.9047540341754433 -0.1764094606794908 -0.3876852329223173
-0.868239287442646 -0.2578075592230972 -0.4239054165123571
-0.8275212716845166 -0.3070195547247391 -0.4700505695414728
-0.7870545199901967 -0.325760113305839 -0.5238564031697688
-0.756829525710661 -0.2974420343377997 -0.5820114304904729
0 0 0
0 0 0
0 0 0
0 0 0
0 0 0
0 0 0
0 0 0
0 0 0
0 0 0
0 0 0
0 0 0
0 0 0
0 0 0
0 0 0
0 0 0
0 0 0
0 0 0
0 0 0
0 0 0
0 0 0
0 0 0
0 0 0
-0.7568190811291127 0.3269445924582987 -0.5659788970457839
-0.7944320335440029 0.355138120710517 -0.4927013895833275
-0.8494345988814394 0.3176705863871868 -0.4213623865125464
-0.8832533210822949 0.2962086485503542 -0.3634886618879174
-0.9131076438296024 0.2627451694544336 -0.3117681938689582
-0.9395522025475695 0.2137315008814546 -0.2675079516929749
-0.9603657117245749 0.1524807189995349 -0.2333395167500251
-0.9723332980598287 0.09890804953083945 -0.2116250344881262
-0.9790272060604199 0.04820442256636341 -0.197944596891582
-0.9815493794075321 -0.002650352514143832 -0.1911904584863972
-0.9800355140833125 -0.05386633934157242 -0.1913865424249972
-0.9744829157313196 -0.1047357849761597 -0.198528240543286
-0.964705507927705 -0.1554683571626339 -0.2125391090954782
-0.9494109111427014 -0.209061140952552 -0.2343338668370457
-0.9247169270993153 -0.2703113801193859 -0.268011870098979
-0.894494178196936 -0.31976215767933 -0.3124617219565414
-0.86113700579049 -0.3539517114730572 -0.3649126514708455
-0.8239907108361172 -0.3762862360108664 -0.4236130038662224
-0.7649621600654695 -0.4140602951663834 -0.4933426452625982
-0.7244315609150578 -0.3873786780417103 -0.5702075704064526
0 0 0
0 0 0
0 0 0
0 0 0
0 0 0
0 0 0
0 0 0
0 0 0
0 0 0
0 0 0
0 0 0
0 0 0
0 0 0
0 0 0
0 0 0
0 0 0
0 0 0
0 0 0
0 0 0
-0.7609396894473999 0.4078088226256596 -0.504641212360195
-0.8120063800644759 0.4072317688096559 -0.4181003769512104
-0.8516976021337742 0.3970007727135207 -0.3420549385470795
-0.8895904054410644 0.3653160184988875 -0.2741771638472514
-0.9189569841995056 0.3287176452855181 -0.2178595209507573
-0.9433595898054052 0.2848504185736666 -0.170096805850622
-0.9637693021009546 0.23254860877553 -0.1306517389260621
-0.979585276633705 0.1740341875191528 -0.10062200244984
-0.9900221034824721 0.1157316842618708 -0.08038912783487108
-0.9959845717729008 0.05836709748845405 -0.06788235942514541
-0.9980819107939694 0.001314523833814723 -0.06189322558203478
-0.996519433095065 -0.05567873527589379 -0.06203948663526326
-0.9912903391669223 -0.1125950716567088 -0.06830675891116561
-0.9821586972080543 -0.1696961891703934 -0.08104009427205246
-0.9684539918368279 -0.2276280963326633 -0.1014017527229205
-0.9492475390951195 -0.2857317306515154 -0.1314780879871198
-0.9255379720753307 -0.3377535370707788 -0.1711783001518064
-0.8979579484354434 -0.3815333763241822 -0.2193257978266094
-0.8653805879211164 -0.4183209168827292 -0.2759058689982782
-0.8239567144559931 -0.45055048522154 -0.3436562133433925
-0.7808342082507184 -0.4619276201969189 -0.4206195584191067
-0.7264191389702799 -0.4628552011342211 -0.5080160404167142
0 0 0
0 0 0
0 0 0
0 0 0
0 0 0
0 0 0
0 0 0
0 0 0
0 0 0
0 0 0
0 0 0
0 0 0
0 0 0
0 0 0
0 0 0
0 0 0
-0.656526914315299 0.497921242350015 -0.5666099603750795
-0.7079109529675257 0.533250610782013 -0.4631477828611719
-0.7878550781303375 0.4980620506159657 -0.3622410379850113
-0.8373289288478065 0.4709905164447853 -0.27757557229277
-0.8739098361271884 0.4405863939748816 -0.2053417341028377
-0.9045850543655309 0.4014351981402781 -0.1434421873529006
-0.9298068780795494 0.3563726692934321 -0.09196570043573464
-0.9508294293685989 0.3057601035042917 -0.04933715994693143
-0.9682105896737282 0.249694226691064 -0.01486765619734663
-0.9818139297434166 0.1895052089685555 0.0113658759263377
-0.9913588436365961 0.1277968512374463 0.02959067348514245
-0.9969930587734012 0.06579599039808735 0.04093566177786662
-0.9989187807042463 0.003802992194110528 0.04633364659416416
-0.9972402473347001 -0.0580998243994591 0.04622012008398284
-0.9919636179235983 -0.1198316844333414 0.04060231670475246
-0.9829950705945443 -0.1813182050191731 0.02905855666497591
-0.9701468162709606 -0.2422838791936804 0.01066193050908387
-0.9533152144399762 -0.3015665282240878 -0.0157394717869524
-0.9328658195102448 -0.3566762858565291 -0.05043203245031981
-0.9089217379268208 -0.4063973440652838 -0.09328704658617029
-0.8807992243376427 -0.4507781058267572 -0.1448855607486382
-0.8470582075701243 -0.4896352656355117 -0.2067600049190597
-0.8071435868967584 -0.520268913458139 -0.2789972899877738
-0.7536945419417521 -0.5478382103817209 -0.36306725643187
-0.6686497955818749 -0.5833476227699437 -0.4610997743189342
-0.6132695755359768 -0.5500065350610567 -0.5669155484832401
0 0 0
0 0 0
0 0 0
0 0 0
0 0 0
0 0 0
0 0 0
0 0 0
0 0 0
0 0 0
0 0 0
0 0 0
0 0 0
-0.6353659785296117 0.5442696766193724 -0.5477961230601694
-0.6984968378363545 0.5677141523719679 -0.4356636417342986
-0.7498437786826195 0.5727705075438383 -0.3311619743553662
-0.8015832803587618 0.5495819812728658 -0.2354227909729166
-0.8421696894388863 0.5164461358068566 -0.155027749130841
-0.8744986869072776 0.4769647525998454 -0.08807196702024357
-0.9015996473537272 0.4313707133542706 -0.03220843914041733
-0.9246135271747883 0.3806522975764839 0.01391595182301633
-0.9441922349921459 0.3253157651218925 0.0516785868972193
-0.9605569237797589 0.2657397775254551 0.08193147636584805
-0.9735733196350081 0.2027805668142629 0.1050477654086753
-0.9829901700482554 0.1377879220522133 0.1214282262286432
-0.9886756950862196 0.07180553565186004 0.131773802387005
-0.990593819175721 0.005447057547002891 0.1367267895291128
-0.9887477339911701 -0.06089901533738412 0.136635385088427
-0.9831599988584024 -0.1269015341636884 0.1315006360123314
-0.9738749308393323 -0.1921778436143855 0.1209764254159048
-0.9609841035005559 -0.2561362888265805 0.1044210436903359
-0.9446844946862566 -0.3177879190053033 0.08112979744613159
-0.925282005178151 -0.3758757985384421 0.05070103516288504
-0.9028996882902992 -0.4296608220657863 0.01279573628334139
-0.877227713701577 -0.4789120400774087 -0.03338856365281345
-0.8474641433048197 -0.5233035984098826 -0.08920689269274891
-0.8122719102364533 -0.5620259959632991 -0.1560164212584185
-0.7683137202691277 -0.594968900406209 -0.2360212592027226
-0.7124696037741927 -0.6186892461052997 -0.3310750374937687
-0.6568871432437278 -0.6151627058630145 -0.4359749148246815
-0.589763267825359 -0.5929251388327146 -0.548287395135215
0 0 0
0 0 0
0 0 0
0 0 0
0 0 0
0 0 0
0 0 0
0 0 0
0 0 0
0 0 0
0 0 0
-0.5929251388327145 0.5897632678253593 -0.548287395135215
-0.6614947966897291 0.6172479694583923 -0.4259455107779694
-0.7148111774085852 0.6251439530830779 -0.3134326380187836
-0.7588079047484021 0.6155366166604276 -0.212897245735057
-0.7983797564618431 0.5890796569701792 -0.124799528107375
-0.8323222283102245 0.5519529197921039 -0.05086926963966764
-0.8614457907679417 0.5077454824826272 0.01027981452552961
-0.886899094741561 0.4579498172213234 0.06076150634699079
-0.9092911120917693 0.4033978609245544 0.1022733556328667
-0.9288403774854633 0.344554701993932 0.136152893786853
-0.94547503677144 0.2818103798544138 0.1632784880146639
-0.9589178354279869 0.2157849130893334 0.184156064741655
-0.9688169782884936 0.1473710371309787 0.1991869473507029
-0.9748791357317572 0.07746612033472967 0.2088292865361246
-0.9769201446412943 0.006828831670402608 0.2134956628413077
-0.974868296092822 -0.06389800476313059 0.2134217661354353
-0.9687609369323656 -0.1341115406774955 0.2086057087690389
-0.9587465848665235 -0.2031739853014047 0.1988097525362422
-0.9450901700366843 -0.2703461515651998 0.183623334121556
-0.9281632798220273 -0.3347772992893751 0.162594851918899
-0.9083736904727897 -0.3956532325684595 0.1353357233511255
-0.8860055725255213 -0.4524594846153312 0.1013634067864308
-0.8610789467539128 -0.5049395896456741 0.05982523101192111
-0.8332649833663904 -0.5527939520695645 0.009397555571552177
-0.801781760385049 -0.5953839468599379 -0.05161360804413707
-0.7652350811464457 -0.63143700602403 -0.1253099278038308
-0.7225705199996459 -0.6576200945204184 -0.2131376431097915
-0.674910860055456 -0.6679406252746115 -0.3136090752624441
-0.6172479694583921 -0.6614947966897291 -0.4259455107779695
-0.5442696766193724 -0.6353659785296117 -0.5477961230601694
0 0 0
0 0 0
0 0 0
0 0 0
0 0 0
0 0 0
0 0 0
0 0 0
0 0 0
-0.5500065350610566 0.6132695755359768 -0.5669155484832402
-0.6151627058630142 0.6568871432437279 -0.4359749148246816
-0.6679406252746114 0.6749108600554561 -0.3136090752624441
-0.7113607671831672 0.67228504948851 -0.2049357732237279
-0.7484656182632223 0.6538495434614022 -0.1108151289001995
-0.781760016562677 0.62283419144607 -0.03047698262037594
-0.8118939723336854 0.5826468267675809 0.03675395143242071
-0.8393282012430493 0.5357024399005811 0.09247197674253135
-0.8644178207252086 0.4833060595487284 0.1385535420556322
-0.8872595813728854 0.4261274665539763 0.1765950664947963
-0.9077066342975424 0.364539505931768 0.2077970516327156
-0.9254220086055435 0.2988787419300391 0.2329497877457672
-0.9399436441500952 0.2296478593307844 0.2525228831742324
-0.9507739797369815 0.1575753391064827 0.2668311300440379
-0.9574782308116434 0.0835220297360809 0.2761512412982604
-0.9597543712775251 0.008380644397026052 0.2807157131568747
-0.9574690573817383 -0.06696444002221175 0.2806577416160774
-0.9506720224779219 -0.141636178951367 0.2759744526034849
-0.9395967792688686 -0.2147554720835271 0.2665295098066062
-0.9246449662237071 -0.2854479239983798 0.2520935721556071
-0.9063423027636032 -0.3528937421296644 0.232399735341696
-0.8852535860765299 -0.4164322915521865 0.2071478575588896
-0.861868849831119 -0.4756535507445049 0.1758857167450726
-0.8365054661810488 -0.5303386564562748 0.1378387264790958
-0.809237788391481 -0.5802621761302202 0.09181507932733864
-0.7798344359786875 -0.62493717320541 0.03621853127658308
-0.7477328083068304 -0.6632833122034095 -0.03083658758771297
-0.7122015555412693 -0.6931468324547736 -0.1109793356553816
-0.6722850494885099 -0.7113607671831672 -0.204935773223728
-0.6251439530830777 -0.7148111774085855 -0.3134326380187838
-0.5677141523719677 -0.6984968378363545 -0.4356636417342985
-0.4979212423500147 -0.6565269143152991 -0.5666099603750796
0 0 0
0 0 0
0 0 0
0 0 0
0 0 0
0 0 0
0 0 0
0 0 0
-0.5833476227699436 0.668649795581875 -0.4610997743189341
-0.6186892461052995 0.7124696037741929 -0.3310750374937687
-0.6576200945204184 0.7225705199996461 -0.2131376431097915
-0.6931468324547736 0.7122015555412694 -0.1109793356553815
-0.7253193989878833 0.6879889919129616 -0.02414366290441656
-0.7552574543957519 0.653588061503682 0.04907976609059703
-0.7835913885594851 0.6113849173937533 0.1104220021501637
-0.810562652547047 0.562893870857491 0.1616746005004034
-0.8361522186452471 0.5089420076255823 0.2045177257077535
-0.8601211777968306 0.4499325051070274 0.2403170829414902
-0.8820449597380363 0.3860900598693733 0.2700576876720766
-0.9013548766598074 0.3176664241357415 0.2943593540188486
-0.9173930878559814 0.2450957244939401 0.3135570254177983
-0.9294899050831068 0.1690630192517763 0.3278203957505846
-0.9370562796356323 0.09047787800680052 0.3372525498596175
-0.9396688475486243 0.01040448363695649 0.3419271905930967
-0.9371306564075006 -0.07000764018927956 0.341884575750903
-0.9295020241972525 -0.1495829935163985 0.337121513795668
-0.9170999209542045 -0.2271778576285783 0.3275941940710806
-0.9004638034589351 -0.301745892657414 0.3132321103026449
-0.8802869235005847 -0.3724149719450606 0.2939422068792353
-0.8573198621339 -0.4385605278111876 0.2695687619823238
-0.8322673557388272 -0.4998311532731607 0.2397912984015939
-0.8057036156847179 -0.5560799742434637 0.2040018282221031
-0.7780102437158192 -0.6072129688873851 0.1612218071112548
-0.7493235570749027 -0.6529896922994408 0.110084824400533
-0.7194852228855151 -0.6927840302560283 0.04890093528343813
-0.6879889919129616 -0.7253193989878833 -0.02414366290441677
-0.6538495434614022 -0.7484656182632223 -0.1108151289001996
-0.6155366166604276 -0.758807904748402 -0.2128972457350571
-0.5727705075438382 -0.7498437786826195 -0.3311619743553664
-0.5332506107820127 -0.7079109529675258 -0.463147782861172
0 0 0
0 0 0
0 0 0
0 0 0
0 0 0
0 0 0
0 0 0
-0.4628552011342209 0.72641913897028 -0.5080160404167142
-0.5478382103817206 0.7536945419417522 -0.36306725643187
-0.5949689004062089 0.7683137202691277 -0.2360212592027227
-0.63143700602403 0.7652350811464458 -0.1253099278038307
-0.6632833122034094 0.7477328083068305 -0.03083658758771302
-0.6927840302560282 0.7194852228855151 0.04890093528343824
-0.7211425651037455 0.6829947280758136 0.1160672314489971
-0.7489123171382597 0.6397572597512746 0.1727454480851598
-0.7761997130802192 0.5905769998760555 0.2207550965019435
-0.8028012448339809 0.5358005147740351 0.2615874034828302
-0.8282810306347393 0.4755223941816024 0.2963595568265853
-0.8520172270321271 0.4097725419606407 0.3258114618849361
-0.8732430140741073 0.3386834355817006 0.3503429303316165
-0.891101311184565 0.2626260554373655 0.3700891895348445
-0.9047255338762771 0.1822896676984571 0.3850223180578898
-0.9133438498124777 0.09868971083462441 0.395048545099333
-0.9163883521557701 0.01311437293988187 0.4000754944452677
-0.9135848856276805 -0.07296932288779041 0.4000476654974441
-0.9050032379905917 -0.158033289454494 0.3949615407235697
-0.8910555834549816 -0.2406163789673819 0.3848684260449629
-0.8724416663491282 -0.319447484065428 0.3698632770933389
-0.8500512302280839 -0.3935459344621679 0.3500492871811335
-0.8248452718930062 -0.462278160300142 0.325467632715249
-0.7977431486511939 -0.5253493691874748 0.2959964680100101
-0.7695350979410938 -0.5827228846132865 0.2612465746852217
-0.7408204708668221 -0.6344855635924957 0.2204837852028411
-0.7119561678605268 -0.6806842051165767 0.1725903472102866
-0.6829947280758136 -0.7211425651037455 0.1160672314489971
-0.653588061503682 -0.7552574543957518 0.04907976609059712
-0.6228341914460699 -0.781760016562677 -0.03047698262037594
-0.5890796569701791 -0.7983797564618431 -0.124799528107375
-0.5495819812728655 -0.8015832803587619 -0.2354227909729167
-0.4980620506159655 -0.7878550781303375 -0.3622410379850114
-0.4078088226256594 -0.7609396894473999 -0.504641212360195
0 0 0
0 0 0
0 0 0
0 0 0
0 0 0
-0.3873786780417103 0.7244315609150576 -0.5702075704064526
-0.4619276201969187 0.7808342082507184 -0.4206195584191068
-0.520268913458139 0.8071435868967585 -0.2789972899877739
-0.5620259959632991 0.8122719102364533 -0.1560164212584184
-0.5953839468599379 0.8017817603850491 -0.05161360804413709
-0.6249371732054101 0.7798344359786876 0.03621853127658322
-0.6529896922994408 0.7493235570749027 0.1100848244005329
-0.6806842051165767 0.7119561678605268 0.1725903472102866
-0.7084932839643522 0.6685588114056494 0.2259787208328976
-0.7364479840114624 0.6193893081085565 0.2720317111041575
-0.7642599049479754 0.5643730724496129 0.312073441328632
-0.7913874768943139 0.5032886315042701 0.3469962749272828
-0.8170744482501501 0.4359318184184198 0.3772966945351123
-0.8403856500641996 0.3622714521253858 0.4031269702477573
-0.8602626327519445 0.2825904428376985 0.4243711162502533
-0.8756151720382496 0.1975893883830294 0.4407453959996024
-0.8854498660250943 0.1084255544896575 0.4519097629945079
-0.8890172181980632 0.01667067679103682 0.4575701850893539
-0.8859429183583548 -0.07581264520375955 0.4575561039237589
-0.8763054137788021 -0.1670577070783493 0.4518634133094715
-0.860633844934733 -0.2552066776208282 0.440657391462569
-0.839825067826707 -0.338702721012994 0.4242338060884119
-0.8150044219553951 -0.4164202638450258 0.4029416285920218
-0.7873694279138669 -0.4877107959777131 0.3770776623898248
-0.758053036912123 -0.5523634312113319 0.3467711537725582
-0.7280258975852486 -0.6104990303601733 0.3118801474516791
-0.6980348405391211 -0.6624276297457036 0.2719135832263853
-0.6685588114056493 -0.7084932839643524 0.2259787208328975
-0.6397572597512745 -0.7489123171382597 0.1727454480851597
-0.6113849173937533 -0.7835913885594853 0.1104220021501636
-0.5826468267675808 -0.8118939723336855 0.03675395143242068
-0.5519529197921039 -0.8323222283102245 -0.05086926963966775
-0.5164461358068565 -0.8421696894388863 -0.1550277491308412
-0.4709905164447853 -0.8373289288478065 -0.2775755722927701
-0.4072317688096559 -0.812006380064476 -0.4181003769512104
-0.3269445924582983 -0.7568190811291127 -0.565978897045784
0 0 0
0 0 0
0 0 0
0 0 0
-0.4140602951663834 0.7649621600654696 -0.4933426452625983
-0.45055048522154 0.8239567144559931 -0.3436562133433927
-0.4896352656355115 0.8470582075701243 -0.2067600049190597
-0.5233035984098826 0.8474641433048199 -0.08920689269274891
-0.5527939520695646 0.8332649833663904 0.009397555571552235
-0.58026217613022 0.8092377883914811 0.09181507932733864
-0.6072129688873852 0.7780102437158192 0.1612218071112548
-0.6344855635924955 0.7408204708668222 0.2204837852028412
-0.6624276297457036 0.698034840539121 0.2719135832263854
-0.6910197508958322 0.6494999229901309 0.3172405300520026
-0.7199433919328297 0.5947809857341664 0.357654989370126
-0.7486119901843017 0.533341027567155 0.3938622049218606
-0.7761851410477496 0.4647024538223008 0.4261317357674935
-0.8015883494187841 0.3886135140399737 0.4543519063254512
-0.8235632233010123 0.3052183453625429 0.4781060330932853
-0.8407697608903741 0.2152054888577148 0.4967824541364706
-0.8519478187051023 0.119892076250902 0.5097163959064545
-0.8561183399233019 0.02119842089054936 0.5163448605328772
-0.8527754000279413 -0.07851267063613521 0.516342790844189
-0.8420050562970099 -0.1767147177582432 0.5097052027377129
-0.824483341902856 -0.2710465876371487 0.4967504063963662
-0.8013518727976106 -0.3595979453304398 0.478042355527089
-0.7740171937266224 -0.4410783113737853 0.4542546720191369
-0.7439393643034991 -0.5148472072214314 0.4260124123262111
-0.7124616422200134 -0.5808292891596806 0.3937457875576847
-0.6807022223768022 -0.639361720696952 0.357576669483224
-0.6494999229901309 -0.6910197508958322 0.3172405300520026
-0.6193893081085564 -0.7364479840114626 0.2720317111041576
-0.5905769998760554 -0.7761997130802192 0.2207550965019434
-0.5628938708574909 -0.8105626525470468 0.1616746005004036
-0.5357024399005809 -0.8393282012430493 0.09247197674253134
-0.507745482482627 -0.8614457907679418 0.01027981452552962
-0.4769647525998454 -0.8744986869072777 -0.08807196702024365
-0.4405863939748815 -0.8739098361271884 -0.2053417341028377
-0.3970007727135205 -0.8516976021337742 -0.3420549385470795
-0.3551381207105168 -0.7944320335440032 -0.4927013895833275
0 0 0
0 0 0
0 0 0
-0.2974420343377997 0.7568295257106609 -0.582011430490473
-0.3762862360108663 0.8239907108361172 -0.4236130038662224
-0.418320916882729 0.8653805879211164 -0.2759058689982783
-0.4507781058267571 0.8807992243376427 -0.1448855607486383
-0.4789120400774087 0.877227713701577 -0.0333885636528134
-0.504939589645674 0.8610789467539129 0.0598252310119211
-0.5303386564562746 0.8365054661810488 0.1378387264790958
-0.5560799742434637 0.805703615684718 0.204001828222103
-0.5827228846132866 0.7695350979410938 0.2612465746852217
-0.6104990303601732 0.7280258975852486 0.311880147451679
-0.6393617206969521 0.6807022223768021 0.357576669483224
-0.6690005528738299 0.6268140145480752 0.3994276548020118
-0.6988316379439941 0.5655057310650174 0.4379927053515093
-0.727978107218245 0.4959825117104305 0.4733383815922324
-0.7552622730357994 0.4177012802228237 0.5050787457704107
-0.7792387614291858 0.330591236357328 0.5324437877654703
-0.7983004348855868 0.2352752684875672 0.554402348208939
-0.8108759223827615 0.1332283908316353 0.5698512388126555
-0.8157019064507476 0.02678815854025172 0.5778518792689331
-0.8121020414838469 -0.0810489180262173 0.5778592796733016
-0.8001680938419184 -0.1870352866522689 0.5698673732933776
-0.780758910435615 -0.288170102932419 0.5544127664036154
-0.7553147416933907 -0.3821166825301608 0.5324344860288353
-0.7255686550317459 -0.4674181133241295 0.5050449823252715
-0.6932616363969043 -0.5434936830396409 0.4732894674470292
-0.6599341570995048 -0.6104794566188319 0.4379517568634034
-0.6268140145480752 -0.6690005528738298 0.3994276548020119
-0.5947809857341663 -0.7199433919328297 0.3576549893701261
-0.5643730724496129 -0.7642599049479754 0.312073441328632
-0.5358005147740351 -0.802801244833981 0.2615874034828305
-0.5089420076255821 -0.8361522186452474 0.2045177257077534
-0.4833060595487282 -0.8644178207252087 0.1385535420556323
-0.4579498172213234 -0.8868990947415611 0.06076150634699089
-0.4313707133542705 -0.9015996473537274 -0.03220843914041729
-0.4014351981402779 -0.9045850543655309 -0.1434421873529008
-0.3653160184988873 -0.8895904054410646 -0.2741771638472514
-0.3176705863871866 -0.8494345988814394 -0.4213623865125464
-0.2325379200695356 -0.7831583086276216 -0.5767054528589587
0 0 0
0 0 0
-0.325760113305839 0.7870545199901967 -0.5238564031697689
-0.3539517114730571 0.86113700579049 -0.3649126514708455
-0.381533376324182 0.8979579484354436 -0.2193257978266096
-0.4063973440652837 0.9089217379268208 -0.09328704658617047
-0.4296608220657863 0.9028996882902992 0.01279573628334128
-0.4524594846153313 0.8860055725255214 0.1013634067864308
-0.4756535507445048 0.8618688498311191 0.1758857167450726
-0.4998311532731607 0.8322673557388272 0.2397912984015939
-0.5253493691874747 0.797743148651194 0.2959964680100099
-0.5523634312113319 0.758053036912123 0.3467711537725581
-0.5808292891596807 0.7124616422200134 0.3937457875576847
-0.610479456618832 0.6599341570995048 0.4379517568634033
-0.6407778134645479 0.5992900425642346 0.4798491832388075
-0.6708642224792634 0.5293705267222644 0.519334228060394
-0.6995098660417741 0.4492589464973782 0.5557448571982333
-0.7251187932769783 0.3585685599762811 0.587904178785178
-0.7458228357374979 0.2577695088697596 0.6142500940085558
-0.7597099387218743 0.1484657841496178 0.6330866606903391
-0.7651811356914352 0.03347884891468451 0.6429440070933958
-0.7613476877848163 -0.08339823825451934 0.6429575663764722
-0.7483036681405726 -0.1979911351175565 0.633120154996052
-0.7271274860586963 -0.3064926641584228 0.6142864688685827
-0.6996078121759437 -0.4060677417299267 0.5879267796832754
-0.6678352712065806 -0.4951173417756983 0.555747126313217
-0.6338283282747839 -0.5732048896453408 0.5193243733574087
-0.5992900425642345 -0.6407778134645478 0.4798491832388076
-0.5655057310650172 -0.6988316379439942 0.4379927053515094
-0.5333410275671548 -0.7486119901843017 0.3938622049218607
-0.5032886315042697 -0.7913874768943139 0.346996274927283
-0.4755223941816022 -0.8282810306347396 0.2963595568265854
-0.4499325051070273 -0.8601211777968306 0.2403170829414902
-0.4261274665539763 -0.8872595813728854 0.1765950664947964
-0.4033978609245542 -0.9092911120917695 0.1022733556328668
-0.3806522975764838 -0.9246135271747883 0.01391595182301652
-0.356372669293432 -0.9298068780795496 -0.0919657004357346
-0.3287176452855178 -0.9189569841995057 -0.2178595209507573
-0.2962086485503539 -0.8832533210822949 -0.3634886618879176
-0.2620275030044841 -0.8108960772689524 -0.5232486402648933
0 0 0
0 0 0
-0.3070195547247391 0.8275212716845166 -0.4700505695414729
-0.3197621576793299 0.894494178196936 -0.3124617219565415
-0.3377535370707788 0.9255379720753307 -0.1711783001518065
-0.356676285856529 0.9328658195102451 -0.05043203245031991
-0.3758757985384421 0.925282005178151 0.05070103516288501
-0.3956532325684594 0.9083736904727897 0.1353357233511255
-0.4164322915521865 0.8852535860765299 0.2071478575588897
-0.4385605278111877 0.8573198621339 0.2695687619823238
-0.462278160300142 0.8248452718930062 0.325467632715249
-0.4877107959777132 0.7873694279138671 0.3770776623898248
-0.5148472072214315 0.7439393643034992 0.4260124123262111
-0.543493683039641 0.6932616363969042 0.473289467447029
-0.5732048896453408 0.6338283282747839 0.5193243733574084
-0.6031973273648595 0.5640758263490385 0.5638895693205711
-0.6322640260099072 0.4826293839280785 0.6060619433547584
-0.6587307510565712 0.3886670124476276 0.644214056853373
-0.6805188113341865 0.2823847415530821 0.6761309082997943
-0.6953863506176932 0.1654505108189106 0.6993310745593733
-0.7013722855806341 0.04122252595654571 0.7116021503432651
-0.697341665042162 -0.08552391143971644 0.7116180596136359
-0.6833854245346368 -0.2094396609176331 0.6993707099731306
-0.6608270158521266 -0.3257214864220034 0.6761753976617411
-0.6318275818389654 -0.4309775757276612 0.6442454780962248
-0.5988271671341971 -0.5235274033230118 0.6060734954375553
-0.5640758263490384 -0.6031973273648595 0.5638895693205713
-0.5293705267222644 -0.6708642224792633 0.5193342280603941
-0.4959825117104304 -0.7279781072182449 0.4733383815922325
-0.4647024538223007 -0.7761851410477495 0.4261317357674935
-0.4359318184184196 -0.8170744482501504 0.3772966945351123
-0.4097725419606405 -0.8520172270321271 0.3258114618849361
-0.3860900598693732 -0.8820449597380365 0.2700576876720766
-0.3645395059317678 -0.9077066342975426 0.2077970516327157
-0.3445547019939318 -0.9288403774854634 0.1361528937868531
-0.3253157651218922 -0.9441922349921459 0.05167858689721934
-0.3057601035042914 -0.9508294293685989 -0.04933715994693143
-0.2848504185736663 -0.9433595898054052 -0.170096805850622
-0.2627451694544334 -0.9131076438296024 -0.3117681938689583
-0.2446099409358825 -0.8476117486864829 -0.4708718512334178
0 0 0
0 0 0
-0.2578075592230972 0.868239287442646 -0.4239054165123573
-0.2703113801193859 0.9247169270993152 -0.2680118700989791
-0.2857317306515154 0.9492475390951195 -0.13147808798712
-0.3015665282240878 0.953315214439976 -0.01573947178695247
-0.3177879190053033 0.9446844946862566 0.08112979744613154
-0.3347772992893751 0.9281632798220273 0.162594851918899
-0.3528937421296644 0.9063423027636032 0.2323997353416959
-0.3724149719450606 0.8802869235005847 0.2939422068792353
-0.393545934462168 0.8500512302280839 0.3500492871811335
-0.4164202638450258 0.8150044219553949 0.4029416285920218
-0.4410783113737854 0.7740171937266224 0.4542546720191369
-0.4674181133241297 0.7255686550317461 0.5050449823252715
-0.4951173417756985 0.6678352712065805 0.555747126313217
-0.5235274033230118 0.5988271671341973 0.6060734954375552
-0.5515528704196453 0.5166429684376986 0.654881267326935
-0.5775559145281232 0.4199063352049556 0.7000770209400723
-0.5993648549514188 0.308393920688044 0.738684614928266
-0.6144961148709365 0.1837312780351618 0.76722704741171
-0.6206636179188527 0.04983353898457772 0.7824917199460658
-0.6164844809301393 -0.08735464403391338 0.7825062625551341
-0.6020389642905092 -0.2210380942941109 0.7672621757566563
-0.5788858186270369 -0.3452278037412468 0.7387211737296422
-0.5495186223058977 -0.4559519570509755 0.7000979192944463
-0.5166429684376986 -0.5515528704196453 0.6548812673269353
-0.4826293839280785 -0.6322640260099071 0.6060619433547585
-0.449258946497378 -0.6995098660417742 0.5557448571982333
-0.4177012802228235 -0.7552622730357993 0.505078745770411
-0.3886135140399735 -0.8015883494187843 0.4543519063254512
-0.3622714521253856 -0.8403856500641996 0.4031269702477575
-0.3386834355817004 -0.8732430140741074 0.3503429303316165
-0.3176664241357413 -0.9013548766598075 0.2943593540188487
-0.2988787419300388 -0.9254220086055435 0.2329497877457673
-0.2818103798544137 -0.9454750367714401 0.1632784880146639
-0.2657397775254549 -0.9605569237797591 0.08193147636584808
-0.2496942266910638 -0.9682105896737282 -0.01486765619734675
-0.2325486087755298 -0.9637693021009546 -0.1306517389260621
-0.2137315008814544 -0.9395522025475697 -0.267507951692975
-0.1962966957082078 -0.8839017568826427 -0.4244823805929004
0 0 0
-0.08980984392546479 0.827201979223722 -0.554681059260581
-0.1764094606794907 0.9047540341754431 -0.3876852329223177
-0.2090611409525519 0.9494109111427014 -0.2343338668370459
-0.2276280963326633 0.968453991836828 -0.1014017527229207
-0.2422838791936804 0.9701468162709606 0.01066193050908375
-0.2561362888265805 0.9609841035005559 0.1044210436903358
-0.2703461515651998 0.9450901700366843 0.183623334121556
-0.2854479239983798 0.924644966223707 0.252093572155607
-0.301745892657414 0.9004638034589351 0.3132321103026448
-0.3194474840654281 0.8724416663491281 0.369863277093339
-0.3387027210129941 0.839825067826707 0.4242338060884119
-0.3595979453304398 0.8013518727976104 0.478042355527089