# OOMMF: rectangular mesh v1.0
# Segment count: 1
# Begin: Segment
# Begin: Header
# Title: 
# meshunit: m
# valueunit: (none)
# valuemultiplier: 1
# xmin: 0
# ymin: 0
# zmin: 0
# xmax: 9.357999999999999e-08
# ymax: 9.357999999999999e-08
# zmax: 2.3395e-08
# ValueRangeMaxMag: 1
# ValueRangeMinMag: 0.9999999999999994
# meshtype: rectangular
# xbase: 1.16975e-09
# ybase: 1.16975e-09
# zbase: 1.16975e-09
# xstepsize: 2.3395e-09
# ystepsize: 2.3395e-09
# zstepsize: 2.3395e-09
# xnodes: 40
# ynodes: 40
# znodes: 10
# End: Header
# Begin: Data Text
-0.1537307978082741 0.08547144284810793 -0.9844092006186725
-0.1792254772586934 0.2484390761284705 -0.9519223990188618
-0.2305581056782334 0.3717739045419366 -0.8992369675495481
-0.3007446182207593 0.4585239376432477 -0.836246658121502
-0.3821391907751213 0.512155824783832 -0.7691983164397381
-0.4676409236397295 0.5364763725988065 -0.7024991588469034
-0.551274231186293 0.5357440195359413 -0.6395897650536898
-0.628501055089243 0.5146664385971476 -0.5831851170369802
-0.6963207404324079 0.4781989426923727 -0.5352225683316798
-0.7531786910462123 0.4312096089313696 -0.4967696976659999
-0.7987327269634309 0.3781284462404538 -0.4680223381649011
-0.8335466766035829 0.3226768531321049 -0.4484189852982178
-0.8587771959052781 0.2677222596852438 -0.4368369483710071
-0.8758991274970863 0.2152551817755827 -0.4318170042606049
-0.8864901675023159 0.1664579874208738 -0.4317718394540196
-0.8920765557841576 0.1218268654283044 -0.4351524255708432
-0.8940308520376853 0.08131357783749707 -0.440564339982295
-0.8935091500870619 0.04446383934993062 -0.4468381873799052
-0.8914154990472191 0.01053955737872824 -0.453064372676397
-0.8883834987935082 -0.02137950748185594 -0.4586040511500498
-0.884767685909674 -0.05231325030843042 -0.4630868879726646
-0.8806399020436831 -0.08331277232448148 -0.4664036287338476
-0.8757882623156266 -0.115398793067121 -0.4686982378341384
-0.8697187057160241 -0.1494990198927686 -0.4703609422334564
-0.8616615086862497 -0.186377053274032 -0.4720201674308248
-0.8505876125420354 -0.2265471733974681 -0.4745282832620805
-0.8352420707229314 -0.2701726457099207 -0.4789336329853761
-0.81420406298037 -0.3169502715205084 -0.4864301277771898
-0.7859840938055893 -0.3659908381774331 -0.4982767410333198
-0.7491680598125507 -0.4157132199308163 -0.5156837567070062
-0.7026132713884047 -0.4637771016439497 -0.5396715583200778
-0.6456917716125845 -0.5070816747695467 -0.5709205822044895
-0.5785612179455423 -0.5418495764454216 -0.6096441204467469
-0.5024260911068638 -0.5637916395627213 -0.6555204116839197
-0.4197395875299345 -0.5683085783356615 -0.7077033548389461
-0.3343007376791097 -0.5506420996908461 -0.7648766533469686
-0.2512325269226504 -0.5058702117283496 -0.8252136367644284
-0.1768832959917367 -0.4287047841295386 -0.8859596535190217
-0.1187446615742467 -0.3132845023558287 -0.9422062013865532
-0.08547144284815082 -0.1537307978082484 -0.9844092006186727
-0.3132845023557427 0.1187446615743746 -0.9422062013865656
-0.3349313277565032 0.2775254359140095 -0.900444689088677
-0.3790612850662602 0.3973511199324826 -0.8357180323843184
-0.4391977940552734 0.4805178955223016 -0.7590835591552484
-0.5086897395809665 0.5306116922836255 -0.6780014608073902
-0.5815240677204214 0.5517595536479958 -0.5978220083102149
-0.6527520824480731 0.5484520241254391 -0.5226041485602771
-0.7186800330438702 0.5254569246801076 -0.4554053473662609
-0.776887722646852 0.4876461121962853 -0.3983048275635575
-0.826115254560508 0.4397314238975022 -0.3523774411330864
-0.866061261539357 0.3859799437758272 -0.3177379018368218
-0.8971399731111004 0.3299834577493024 -0.2936848417232797
-0.920239432208295 0.2745260534052553 -0.2789172519058103
-0.9365099878130553 0.2215562017317603 -0.2717754444400487
-0.9471966801512454 0.1722429498174518 -0.2704640740443019
-0.9535166202946236 0.1270849164659875 -0.2732315480114824
-0.9565751330064509 0.08604212138013535 -0.2784973397756186
-0.9573117148311854 0.04866826838011588 -0.2849310097196436
-0.9564670433061485 0.01423014489820038 -0.2914932212682997
-0.9545637845935278 -0.0181912984223652 -0.2974509334397679
-0.9518958377779911 -0.04961771069624286 -0.3023779039648894
-0.9485225439343331 -0.08110353613755503 -0.306148983461198
-0.9442662135373225 -0.1136729763357936 -0.3089332815072685
-0.9387131348966073 -0.1482562391347044 -0.3111876249631673
-0.9312200545051882 -0.185618099834696 -0.3136481007452633
-0.9209299385897619 -0.2262736782534458 -0.31731415149456
-0.9068025223787846 -0.2703896950879245 -0.3234170654089435
-0.8876664879834084 -0.3176743974622738 -0.3333634402692984
-0.862300674941435 -0.3672655967300191 -0.3486452745328525
-0.8295508939972636 -0.417632953531514 -0.3707128678544683
-0.7884858929465608 -0.4665157916703452 -0.4008154347657473
-0.7385900612264185 -0.5109181067981859 -0.4398265676415107
-0.679981341909207 -0.5471741021761677 -0.4880838827118332
-0.6136316232816801 -0.5710776013882835 -0.5452766308043052
-0.5415568800713877 -0.5780384295856482 -0.6103996392278601
-0.4669415252186979 -0.5631988980623412 -0.6817423364056249
-0.3941739791631596 -0.5214402568379704 -0.7567872440121014
-0.3288065649976055 -0.4472837527680398 -0.8317592724606164
-0.2775254359143947 -0.3349313277562633 -0.9004446890886476
-0.2484390761283375 -0.1792254772587682 -0.9519223990188824
-0.4287047841296873 0.1768832959915372 -0.8859596535189894
-0.4472837527676053 0.3288065649982189 -0.8317592724606075
-0.485023125650178 0.4424077174897749 -0.7543394322783469
-0.5357747006372053 0.5193404643488142 -0.6657559254314381
-0.5939077858640502 0.5635075724582532 -0.5742236129525392
-0.6546276650773666 0.5795336992588889 -0.4853898552078139
-0.7141270812143206 0.5722046993275229 -0.4032422273817733
-0.7696017310631333 0.5462891723259996 -0.3305772462587259
-0.8191853829580513 0.5064370786593745 -0.2691779963273911
-0.8618386243032085 0.4570437967585774 -0.2198753135385072
-0.8972098244482137 0.4020774410590922 -0.1826150659309826
-0.9254817877394452 0.344912127052698 -0.1565857119107085
-0.9472173277808649 0.2882110365299045 -0.1404055995109703
-0.9632160891996278 0.2338822448317526 -0.1323399450635908
-0.9743915415490738 0.1831060765468277 -0.130511641202026
-0.9816723050773716 0.1364163777230983 -0.1330791393607146
-0.9859276587510801 0.09381226086918189 -0.1383687516031922
-0.9879142494930526 0.05487909337043113 -0.1449611008492194
-0.988239760561531 0.01890375725572959 -0.1517393278188079
-0.9873392119817571 -0.01502366697960869 -0.1579100057429177
-0.9854602223952436 -0.04792345565688435 -0.1630076454483631
-0.9826546522374238 -0.08085214913870119 -0.1668914749644224
-0.9787753936823802 -0.1148351593197912 -0.1697398447798847
-0.973478545938223 -0.1507993688230947 -0.1720438053536329
-0.9662326711015452 -0.1894996104433186 -0.1745976028982167
-0.9563380762263863 -0.2314350971267771 -0.1784804744994063
-0.9429598734513744 -0.2767555495558623 -0.1850217361571333
-0.9251786868368101 -0.32516159932571 -0.195740470385819
-0.9020621133047527 -0.3758092741873658 -0.2122529933238356
-0.8727583943789246 -0.4272325836167725 -0.2361463625323468
-0.8366114463061033 -0.477299427334744 -0.2688243749653946
-0.7932938908609599 -0.5232120972649181 -0.3113421012300214
-0.742952456568277 -0.5615532504447653 -0.3642521025252712
-0.6863581590445299 -0.5883622670388683 -0.4274837075701093
-0.6250517557008033 -0.5992098956198476 -0.5002577372581
-0.5614737513119071 -0.5892313437576482 -0.5809936747687453
-0.4990724456506454 -0.5531005716381234 -0.6670880389018111
-0.4424077174907889 -0.4850231256494995 -0.7543394322781882
-0.3973511199318462 -0.3790612850666296 -0.8357180323844534
-0.3717739045421518 -0.2305581056781261 -0.8992369675494866
-0.5058702117281275 0.2512325269229108 -0.8252136367644852
-0.5214402568386173 0.3941739791623587 -0.7567872440120729
-0.5531005716370904 0.4990724456519826 -0.6670880389016671
-0.5952453462020858 0.5676145138505923 -0.5687677394955821
-0.6432758728544008 0.6042507280780184 -0.4701884824414492
-0.6935311679967234 0.6141087220819869 -0.3766762488927715
-0.7432008339389562 0.6021667220945598 -0.2916294896513947
-0.7902078821793891 0.5730526506014504 -0.2172145542550412
-0.8330972111432526 0.5310526677194147 -0.1547000352082279
-0.8709451474854609 0.4801218611391098 -0.1045827353239791
-0.9032850943565323 0.4238330373783527 -0.06664529045588893
-0.9300370321090459 0.3652786549860464 -0.04003277553932354
-0.951432077031751 0.3069696770711091 -0.02337990919372081
-0.9679306514713564 0.2507705130544992 -0.01498011096816063
-0.9801385806694835 0.1978893003753484 -0.01296871158461837
-0.9887275548089239 0.1489222126210353 -0.01549183493395498
-0.9943654515603526 0.1039372899215208 -0.02084198903524316
-0.9976595994097842 0.06257898571594019 -0.02755347985776874
-0.9991135817943354 0.02417694561758205 -0.03446049875869332
-0.9990964420504735 -0.01215184544507202 -0.04072630764460914
-0.9978223985790567 -0.04741215333325003 -0.04585355613517805
-0.9953393396070734 -0.08265019040759346 -0.04968445487416543
-0.9915251893678163 -0.1188798193641324 -0.05239644450787418
-0.9860923967839008 -0.1570097761783986 -0.05449509325976683
-0.9786019164521015 -0.1977670878609438 -0.05680200766940811
-0.9684887238353277 -0.2416144266707094 -0.0604322813436851
-0.9551007656883088 -0.2886631365218734 -0.06675418335175541
-0.9377520779499524 -0.3385882563727891 -0.07732420673359794
-0.9157887387946286 -0.3905556296056004 -0.09379384884050807
-0.888663991049957 -0.4431723150354512 -0.1177905352618805
-0.8560173930319153 -0.4944682198075436 -0.1507826330424086
-0.8177534736553778 -0.5419084168162799 -0.1939446418652388
-0.7741186792742236 -0.5824232876433615 -0.2480390783917512
-0.7257805925652461 -0.6124314339899088 -0.3133213527940665
-0.6739183157758443 -0.627824901389201 -0.3894483237317744
-0.6203358575513054 -0.6238977823379561 -0.4753261838252406
-0.5676145138524301 -0.5952453462007288 -0.5687677394951682
-0.5193404643474248 -0.5357747006380839 -0.6657559254318151
-0.4805178955231659 -0.439197794054812 -0.7590835591549684
-0.4585239376429535 -0.3007446182208902 -0.8362466581216162
-0.5506420996911434 0.3343007376788055 -0.7648766533468875
-0.5631988980614607 0.4669415252196454 -0.6817423364057034
-0.5892313437590635 0.5614737513103183 -0.5809936747688453
-0.6238977823360713 0.6203358575535053 -0.4753261838248434
-0.6635653966638886 0.6487113356470888 -0.3726319462328288
-0.7055056500707495 0.6521480559554176 -0.2774251085100591
-0.7476655594594621 0.6356532995788665 -0.1922006605937371
-0.7884850527548823 0.6035635536392798 -0.1183315608806637
-0.8267735576700024 0.559688876355397 -0.05651412232106239
-0.8616448305459815 0.5074645822716809 -0.006919807310512599
-0.8924925089944155 0.4500105903144421 0.03078294972383085
-0.9189816996519137 0.390096814151179 0.05742047800201702
-0.9410352038356351 0.3300578200649649 0.07426022189562673
-0.9588025988241514 0.2717076129902067 0.08290084155915846
-0.9726108602429475 0.2162911456743531 0.08512493665400742
-0.982902539341316 0.1644873304025695 0.08274367826866465
-0.9901703446398779 0.1164595703557402 0.07745874429850512
-0.9948961337888339 0.07193919117806621 0.07075617107133302
-0.9974995951208653 0.03032475077762986 0.06383546995193014
-0.9982989700210325 -0.009216520564801163 0.05756928177095613
-0.9974840836690984 -0.04765312626419292 0.05248506820103888
-0.9951010632855515 -0.08600175954063148 0.0487603445832753
-0.9910482713223028 -0.125245842862493 0.04622556386609481
-0.9850836968417853 -0.166256353105426 0.04437268606479692
-0.9768447173950507 -0.209711836013688 0.04237149906660108
-0.9658811473323957 -0.2560173715061993 0.03909878150161516
-0.9517013714780364 -0.3052264134044587 0.03318638406146031
-0.933829065716035 -0.3569734074660691 0.02309247466125003
-0.9118650816950802 -0.4104269725965775 0.007195342273470907
-0.885546773577605 -0.46427122920014 -0.01609774963416514
-0.8547970132075421 -0.5167154918371445 -0.04824071627745957
-0.8197586694766785 -0.5655207740230451 -0.09045428661042609
-0.7808173917632936 -0.6080186240766382 -0.1436577651779345
-0.7386243391782158 -0.6410890504491731 -0.2084200445439962
-0.6941382284230262 -0.6610665095250915 -0.2848915404606717
-0.648711335649849 -0.6635653966616211 -0.3726319462320615
-0.6042507280757208 -0.6432758728560186 -0.4701884824421886
-0.5635075724599794 -0.5939077858630251 -0.5742236129519054
-0.5306116922825528 -0.5086897395814916 -0.6780014608078357
-0.5121558247841935 -0.3821391907749819 -0.7691983164395667
-0.5683085783352814 0.4197395875302693 -0.7077033548390528
-0.5780384295867717 0.5415568800703408 -0.6103996392277252
-0.5992098956180261 0.6250517557025741 -0.5002577372580693
-0.6278249013916383 0.6739183157733803 -0.3894483237321092
-0.6610665095221366 0.6941382284261378 -0.2848915404599466
-0.6968985050539886 0.6915489691964352 -0.1899802538604033
-0.7337891955411034 0.6710294324504444 -0.1061739953678596
-0.7705162074392433 0.6365112579148503 -0.03403222915266275
-0.8060491400709563 0.5912644905168739 0.02628851545243166
-0.8395024057228118 0.5381700343429385 0.07489142087670213
-0.8701398540058353 0.4798701338510851 0.1121663457033573
-0.8974050564689412 0.4187889581374267 0.1388523430344064
-0.9209509100155144 0.3570646563764452 0.1560584906641302
-0.9406494552836262 0.2964492781734285 0.165216305929742
-0.956573988821813 0.2382251573238379 0.1679731476384186
-0.968956104383889 0.18316655225875 0.1660544546552131
-0.9781269337177484 0.1315538631694759 0.1611250527419665
-0.9844537155924614 0.08323189326302981 0.1546716968292791
-0.988281078453549 0.03769622981746975 0.1479172208643677
-0.9898831058031635 -0.005808146302248492 0.1417663651294415
-0.9894291200356955 -0.04818736749037831 0.136777169292744
-0.9869641309413639 -0.0904037874505655 0.1331501387522769
-0.9824041651562666 -0.13338638699983 0.1307292165001752
-0.9755467315375588 -0.1779449025001415 0.1290123492561892
-0.9660966844644635 -0.2246867095479001 0.1271734202548162
-0.9537069313655454 -0.27393849499772 0.1240999195152784
-0.9380313470452806 -0.3256787247825028 0.1184506656142491
-0.9187841227960014 -0.3794898464099766 0.1087345031244176
-0.8957966596416547 -0.4345387451609584 0.09340462263074752
-0.869061735259723 -0.489588565714584 0.07095587804329569
-0.8387567384582575 -0.5430345567346349 0.04000754782393281
-0.8052439148456407 -0.5929433547632986 -0.0006447062206238993
-0.769054637020987 -0.6370632606268075 -0.05201314483914506
-0.7308739995077046 -0.6727675210935746 -0.1149219709421044
-0.6915489692001392 -0.6968985050506302 -0.1899802538592401
-0.6521480559521454 -0.705505650073313 -0.2774251085112324
-0.6141087220846964 -0.6935311679949165 -0.3766762488916811
-0.5795336992568575 -0.6546276650784932 -0.4853898552087198
-0.5517595536492514 -0.5815240677198649 -0.5978220083095974
-0.5364763725983818 -0.4676409236398708 -0.7024991588471337
-0.5637916395631835 0.5024260911065146 -0.6555204116837897
-0.5710776013869066 0.6136316232827848 -0.5452766308045042
-0.5883622670411037 0.6863581590426499 -0.4274837075700509
-0.6124314339869028 0.7257805925678825 -0.3133213527938348
-0.6410890504528283 0.7386243391748678 -0.2084200445446181
-0.6727675210894009 0.7308739995117151 -0.1149219709410334
-0.7062683240377691 0.7071628495919734 -0.03325294900968209
-0.7405824212214404 0.6709581408045874 0.03678111833318911
-0.7747821319115937 0.6249746713405525 0.09549506926168352
-0.8079797850205809 0.5715412666193184 0.1432105008345424
-0.8393416200235032 0.512821620539347 0.1803320004982998
-0.8681360513791179 0.4508823211531579 0.2074727181279836
-0.8937902826299302 0.387645823420091 0.2255430031308184
-0.9159316188051672 0.3247842072137267 0.2357636282752212
-0.9343987947135937 0.2636082438262474 0.2396029762432521
-0.949220294863816 0.2049913031148508 0.2386616799277271
-0.9605664895133302 0.1493465867698112 0.2345370253163536
-0.9686876536611853 0.09665699765014246 0.2286955496935777
-0.9738503612863039 0.04654481066703942 0.2223714334677549
-0.976282021703874 -0.00163557078808869 0.216496510378327
-0.9761296410140228 -0.04869609466632986 0.2116591937480683
-0.9734358573646484 -0.0955137393062374 0.2080859370560431
-0.9681334967879958 -0.1429332581778164 0.2056395295261129
-0.9600589703544259 -0.191675133512834 0.2038318342036794
-0.9489839055533913 -0.2422503074088311 0.2018522617187102
-0.9346626057365911 -0.2948860958805215 0.1986152156659429
-0.9168899421048586 -0.3494710692588443 0.192828436227721
-0.8955607225003941 -0.4055280166691259 0.1830792724777354
-0.8707190136714605 -0.4622211330912191 0.1679286257755595
-0.8425862604367275 -0.5183953222431039 0.1459954917102556
-0.811561593447081 -0.572633303897244 0.116012410152367
-0.778195956403645 -0.623303392529316 0.07683706331231749
-0.7431511934473876 -0.6685615014788058 0.02741938033814586
-0.7071628495965976 -0.706268324033212 -0.03325294900812917
-0.6710294324461926 -0.7337891955447569 -0.106173995369482
-0.6356532995826041 -0.7476655594566937 -0.1922006605921454
-0.6021667220914737 -0.743200833940889 -0.2916294896528412
-0.5722046993298273 -0.7141270812131396 -0.4032422273805948
-0.5484520241240154 -0.6527520824486387 -0.5226041485610649
-0.5357440195364197 -0.5512742311861604 -0.6395897650534033
-0.5418495764448726 0.5785612179458933 -0.6096441204469014
-0.5471741021777982 0.6799813419080866 -0.4880838827115662
-0.5615532504421092 0.7429524565702028 -0.3642521025254382
-0.5824232876469367 0.7741186792715035 -0.2480390783918454
-0.6080186240722779 0.7808173917667743 -0.1436577651774698
-0.6370632606317976 0.7690546370167918 -0.05201314484005291
-0.6685615014733381 0.743151193452255 0.02741938033954036
-0.7016431422858375 0.7061004203766132 0.09549396434972057
-0.7354604823547881 0.6600848317540944 0.1529244708430636
-0.7691414330478618 0.606909228795392 0.2002065033211049
-0.8017972871245966 0.5482730685071475 0.237734626652058
-0.8325725169173005 0.4858795703558665 0.2659775313532883
-0.8607143368214011 0.421414302376769 0.2856235567007671
-0.8856366551726148 0.3564435152847287 0.2976503576784809
-0.9069579430867518 0.292286802955467 0.30330795289593
-0.9245032042912885 0.2299102429295584 0.304031421815593
-0.9382720459742417 0.1698685256488756 0.3013142076590273
-0.9483835095476337 0.1123044144148673 0.2965745055142915
-0.9550117934903256 0.0569979033564432 0.2910390236847298
-0.9583259039023179 0.003449244816407621 0.2856563750732712
-0.9584427185590103 -0.04902058411816845 0.2810418786834568
-0.9553990939474156 -0.1011643618770003 0.2774497128678926
-0.9491456433853371 -0.1537054097455939 0.2747675283900428
-0.9395626431811969 -0.20724101061525 0.2725311047523419
-0.9264963842193964 -0.2621568543030178 0.2699596891580859
-0.9098113747252032 -0.3185592820226712 0.2660136204366904
-0.8894500628769741 -0.376234342304324 0.2594731302446923
-0.865488276051802 -0.4346419446407178 0.2490309699130097
-0.8381733100213516 -0.4929477253748296 0.2333838949362878
-0.8079343227721564 -0.5500848516705855 0.2113025935696161
-0.7753617127938023 -0.6048254737421574 0.1816600138886801
-0.7411616414399445 -0.6558308251643338 0.1434062412251154
-0.7061004203821164 -0.7016431422800393 0.09549396435163181
-0.6709581407993839 -0.7405824212262567 0.03678111833113697
-0.6365112579196117 -0.7705162074354023 -0.03403222915057265
-0.6035635536351073 -0.7884850527577747 -0.118331560882674
-0.5730526506048832 -0.790207882177394 -0.217214554253243
-0.5462891723234399 -0.7696017310643301 -0.3305772462601702
-0.5254569246816839 -0.7186800330433205 -0.4554053473653096
-0.5146664385966161 -0.6285010550893626 -0.5831851170373206
-0.5070816747701796 0.6456917716122443 -0.570920582204312
-0.5109181067962993 0.7385900612275192 -0.4398265676418536
-0.5232120972679905 0.7932938908590483 -0.3113421012297292
-0.5419084168121365 0.8177534736581051 -0.1939446418653163
-0.5655207740281039 0.8197586694731602 -0.09045428661068541
-0.5929433547574952 0.8052439148499148 -0.0006447062199449996
-0.6233033925356891 0.7781959563986545 0.07683706331116072
-0.6558308251575518 0.7411616414456214 0.1434062412267908
-0.6897555720538012 0.6958388037476237 0.2001139925637605
-0.7242476355097915 0.6435514125625513 0.2476023865943557
-0.7584086236303632 0.5855573958435801 0.2862497087788602
-0.7913109052632299 0.5231933471509453 0.316379159725285
-0.8220680230150712 0.4578833477485316 0.3384479360118615
-0.8499121469426117 0.3910532615805749 0.3531666590812251
-0.8742543855341971 0.3240000227600692 0.3615290508737817
-0.8947115539937767 0.2577640929914233 0.3647586976541471
-0.9110950429498573 0.1930413013850037 0.3641989547922693
-0.9233687746695756 0.1301517339530016 0.3611795012375884
-0.9315901268217867 0.06906503054875007 0.3568891384778571
-0.9358491374021515 0.009469132610621199 0.3522736543530485
-0.9362187084975552 -0.04913479854703243 0.3479659486658307
-0.9327242498302968 -0.1073266150311767 0.3442476891490476
-0.925337016467443 -0.165661502147252 0.3410391072317756
-0.9139917802972456 -0.2245720963694677 0.3379147807973092
-0.8986259276914248 -0.2842857591861395 0.3341452516566502
-0.8792330342542172 -0.3447658953812345 0.3287639713504168
-0.8559197802681007 -0.4056868498488351 0.3206548137881833
-0.8289522920562022 -0.466448722952051 0.3086481594812593
-0.7987786975382466 -0.5262302707159142 0.291606403464254
-0.7660200294790084 -0.5840664432175258 0.2684766364960037
-0.7314306316733156 -0.6389257862531266 0.2382919862496394
-0.6958388037539643 -0.6897555720467572 0.2001139925659928
-0.6600848317479771 -0.7354604823607885 0.1529244708406102
-0.6249746713463099 -0.7747821319066329 0.0954950692642513
-0.5912644905116231 -0.8060491400748917 0.02628851544986712
-0.5596888763599824 -0.8267735576670642 -0.05651412231863334
-0.5310526677156489 -0.8330972111452549 -0.1547000352103728
-0.5064370786621754 -0.8191853829568793 -0.2691779963256883
-0.4876461121945599 -0.7768877226473667 -0.3983048275646658
-0.4781989426929518 -0.6963207404323101 -0.5352225683312897
-0.4637771016432312 0.7026132713887231 -0.5396715583202807
-0.4665157916724828 0.7884858929455123 -0.4008154347653221
-0.4772994273312585 0.8366114463079506 -0.2688243749658333
-0.4944682198122448 0.8560173930292493 -0.1507826330421269
-0.5167154918313959 0.8547970132110173 -0.04824071627745565
-0.5430345567412399 0.8387567384539997 0.04000754782354544
-0.5726333038899711 0.8115615934520922 0.1160124101532076
-0.6048254737499179 0.775361712788065 0.1816600138873302
-0.6389257862450363 0.7314306316797612 0.2382919862515467
-0.6741742273411149 0.6806619554695924 0.2866852168587018
-0.7097062217661521 0.6238990188910889 0.3272110832675901
-0.7445728744777017 0.5621096393750658 0.3600610891413369
-0.777801895470547 0.4964284435334001 0.3854646700456857
-0.8084788474804144 0.4280977730148308 0.403849291093203
-0.8358237136219666 0.3583477751033924 0.4159153661811892
-0.8592413826161444 0.2882611323511639 0.4226224863581218
-0.8783349631858341 0.2186628990522719 0.4251049623603502
-0.8928834317457497 0.1500613896096281 0.424547708346612
-0.9027950817189828 0.08264752464710405 0.4220550048201311
-0.9080527480611613 0.01634440326386883 0.4185368170430416
-0.9086659308221091 -0.04910938750398904 0.4146257278825959
-0.9046408150830964 -0.1140600463802765 0.4106279356126658
-0.8959740224178934 -0.1788364526327838 0.4065071639738001
-0.8826708767012267 -0.2436565580372305 0.4018999939648383
-0.8647840227759767 -0.3085522746842818 0.3961616939313466
-0.8424632735225133 -0.3733233266984131 0.3884396047116723
-0.8160034032810538 -0.4375292059587317 0.3777653236691517
-0.7858751600881421 -0.5005226452620165 0.363149162654067
-0.752727864063632 -0.5615178389416637 0.3436545928872267
-0.7173597141341297 -0.6196750254395549 0.3184303744680873
-0.6806619554767339 -0.6741742273328335 0.2866852168612212
-0.6435514125555585 -0.7242476355169732 0.2476023865915238
-0.6069092288021085 -0.7691414330417732 0.2002065033241346
-0.5715412666130182 -0.8079797850255883 0.1432105008314351
-0.5381700343486649 -0.8395024057188685 0.07489142087975664
-0.5074645822666906 -0.8616448305488976 -0.006919807313367774
-0.4801218611431982 -0.8709451474835065 -0.1045827353214863
-0.4570437967555386 -0.8618386243043205 -0.2198753135404654
-0.4397314238993702 -0.8261152545600514 -0.3523774411318256
-0.431209608930741 -0.7531786910462834 -0.4967696976664378
-0.4157132199316164 0.749168059812264 -0.5156837567067778
-0.4176329535291294 0.8295508939982318 -0.3707128678549882
-0.4272325836206589 0.8727583943771863 -0.2361463625317397
-0.4431723150302042 0.888663991052504 -0.1177905352624052
-0.4642712292065617 0.8855467735742439 -0.01609774963386279
-0.4895885657071911 0.8690617352638855 0.07095587804332362
-0.5183953222512618 0.8425862604317854 0.1459954917098107
-0.5500848516618535 0.8079343227778585 0.2113025935705455
-0.5840664432266587 0.7660200294725626 0.2684766364945265
-0.6196750254301685 0.7173597141413109 0.3184303744701755
-0.6561191710690283 0.6624117091283909 0.3615499425602152
-0.6924777953357547 0.6017747354148264 0.3979216892597687
-0.727743231318837 0.536264555268702 0.4275629965655103
-0.7608962737208299 0.4668900751786897 0.4506112718712135
-0.7909905860972781 0.3947583681538948 0.4674395399171513
-0.8172228313276471 0.3209470365742951 0.4786855373530743
-0.8389717457369936 0.2463842121783354 0.4852022566356032
-0.8558012704783222 0.171767809771718 0.4879549210469303
-0.8674347296834511 0.09753917277069303 0.4878966074018208
-0.8737145037356149 0.02390889409273095 0.485851140520726
-0.8745630760286576 -0.04907918759896082 0.4824216614041267
-0.8699579740065763 -0.1214635830492582 0.4779327582989144
-0.8599274501182015 -0.1932762309928794 0.4724077466197975
-0.8445676078862013 -0.2644619386870899 0.4655807542148246
-0.8240757516613189 -0.3348177791624836 0.4569422395451467
-0.7987894205334785 -0.4039634355288443 0.4458127458917279
-0.7692171232929613 -0.4713502880999136 0.4314324085427855
-0.7360472072155699 -0.5363091364780331 0.4130460251356328
-0.7001267549512521 -0.5981252555936564 0.3899598769392208
-0.6624117091362999 -0.6561191710595141 0.3615499425629904
-0.6238990188832579 -0.7097062217745101 0.327211083264393
-0.5855573958512154 -0.758408623623151 0.28624970878235
-0.5482730684998389 -0.8017972871306778 0.2377346266484041
-0.5128216205461792 -0.8393416200185366 0.1803320005019859
-0.4798701338448895 -0.8701398540097126 0.1121663456997835
-0.4500105903198279 -0.8924925089915861 0.03078294972713226
-0.423833037373945 -0.9032850943583901 -0.066645290458741
-0.4020774410623631 -0.8972098244471995 -0.1826150659287642
-0.3859799437738156 -0.8660612615397353 -0.3177379018382352
-0.3781284462411289 -0.7987327269633949 -0.4680223381644169
-0.365990838176553 0.785984093805835 -0.4982767410335788
-0.3672655967326399 0.8623006749405723 -0.3486452745322257
-0.3758092741830928 0.9020621133063436 -0.2122529933246406
-0.3905556296113711 0.9157887387922504 -0.09379384883969848
-0.4104269725895056 0.9118650816982685 0.007195342272802361
-0.4345387451691137 0.8957966596376565 0.0934046226311515
-0.4622211330821966 0.8707190136762579 0.1679286257755188
-0.4929477253845144 0.8381733100157693 0.2333838949358799
-0.5262302707057491 0.7987786975446036 0.2916064034651846
-0.5615178389521496 0.7527278640565084 0.3436545928856967
-0.5981252555829829 0.7001267549591381 0.3899598769414334
-0.6352051297479349 0.6412089917791938 0.4305409063067278
-0.6717672883488909 0.5764445442253316 0.4652315528177635
-0.7067382190039251 0.5065562998149883 0.4938844044074557
-0.7390432003728716 0.4324626438198063 0.5165183536748782
-0.7676887368235769 0.3551742005398039 0.5333903735774873
-0.7918253082068687 0.2756800385264272 0.5449891720402934
-0.8107796184653095 0.194856354085653 0.551966857296426
-0.8240574063230804 0.1134183315694439 0.5550366412662148
-0.8313272970582233 0.03191892542488717 0.5548658462778084
-0.8323998148472165 -0.04921556367426358 0.5519858481288661
-0.8272135577843061 -0.1296292832265377 0.5467302614159967
-0.8158350357539821 -0.2089752313012431 0.5392054776603165
-0.7984723076848855 -0.2868605493913167 0.52929481299488
-0.7754966661436024 -0.3628095669123339 0.5166954024926507
-0.7474620097206374 -0.436254491673018 0.5009815989829386
-0.7151096264011926 -0.5065594050217503 0.4816801754404645
-0.6793485826168668 -0.573074308400687 0.4583354015865762
-0.6412089917878316 -0.6352051297371848 0.4305409063097237
-0.6017747354061999 -0.6924777953452935 0.3979216892562147
-0.5621096393835722 -0.7445728744693646 0.3600610891452976
-0.5231933471426801 -0.7913109052703833 0.3163791597210617
-0.4858795703637512 -0.8325725169113107 0.2659775313576343
-0.4508823211458061 -0.8681360513839688 0.2074727181236622
-0.4187889581440757 -0.897405056465198 0.1388523430385454
-0.3900968141454077 -0.9189816996545997 0.05742047799823528
-0.3652786549907615 -0.9300370321073334 -0.04003277553608879
-0.3449121270492003 -0.9254817877403274 -0.1565857119131999
-0.329983457751451 -0.8971399731108241 -0.2936848417217093
-0.3226768531313826 -0.833546676603577 -0.4484189852987488
-0.3169502715214624 0.8142040629801733 -0.4864301277768974
-0.3176743974594318 0.887666487984143 -0.3333634402700508
-0.3251615993303438 0.9251786868354001 -0.1957404703847856
-0.3385882563665261 0.9377520779521193 -0.07732420673474252
-0.3569734074737534 0.9338290657130703 0.02309247466234865
-0.3794898464010975 0.9187841227997776 0.108734503123499
-0.4055280166789737 0.8955607224958076 0.1830792724783575
-0.4346419446301139 0.8654882760571926 0.2490309699127825
-0.4664487229632184 0.8289522920500145 0.3086481594810011
-0.5005226452504526 0.7858751600951235 0.3631491626548973
-0.5363091364898516 0.7360472072077987 0.4130460251341357
-0.5730743083887315 0.6793485826254207 0.4583354015888458
-0.6098982637125866 0.615884398232977 0.4987088488623152
-0.6457115184680969 0.5460427995408932 0.533754527837627
-0.6793643677421908 0.4704845472666427 0.5631237400656761
-0.7097115361568384 0.3900805757406496 0.586640162174176
-0.7356924866310388 0.305823405187318 0.6043414680081717
-0.7563927024058001 0.2187413225422546 0.6164594987180549