# OOMMF: rectangular mesh v1.0
# Segment count: 1
# Begin: Segment
# Begin: Header
# Title: 
# meshunit: m
# valueunit: (none)
# valuemultiplier: 1
# xmin: 0
# ymin: 0
# zmin: 0
# xmax: 9.357999999999999e-08
# ymax: 9.357999999999999e-08
# zmax: 2.3395e-08
# ValueRangeMaxMag: 1
# ValueRangeMinMag: 0
# meshtype: rectangular
# xbase: 1.16975e-09
# ybase: 1.16975e-09
# zbase: 1.16975e-09
# xstepsize: 2.3395e-09
# ystepsize: 2.3395e-09
# zstepsize: 2.3395e-09
# xnodes: 40
# ynodes: 40
# znodes: 10
# End: Header
# Begin: Data Text
0 0 0
0 0 0
0 0 0
0 0 0
0 0 0
0 0 0
0 0 0
0 0 0
0 0 0
0 0 0
0 0 0
0 0 0
0 0 0
0 0 0
0 0 0
0 0 0
-0.9712475074969639 0.21540646557791 0.1013821175955958
-0.9790051623108738 0.1764549277131643 0.1020419063640096
-0.9870673174026032 0.1234682147387564 0.1022433903235436
-0.9926934956213165 0.06479097901437694 0.1017926951676268
-0.9948993167494374 0.004406575356089227 0.1007766422596676
-0.9935410412451314 -0.05460826085237185 0.09946927771035122
-0.9892610887040539 -0.1081226975521885 0.09834622844881946
-0.9841955883155556 -0.1474529612627893 0.09806461214439821
0 0 0
0 0 0
0 0 0
0 0 0
0 0 0
0 0 0
0 0 0
0 0 0
0 0 0
0 0 0
0 0 0
0 0 0
0 0 0
0 0 0
0 0 0
0 0 0
0 0 0
0 0 0
0 0 0
0 0 0
0 0 0
0 0 0
0 0 0
0 0 0
0 0 0
0 0 0
0 0 0
0 0 0
-0.8770088341667146 0.4700104177667909 0.0997281905191634
-0.8943893362071166 0.4355632058238822 0.1017467887032081
-0.9165472139463692 0.3862900758160233 0.1035431404449336
-0.9393336256873779 0.3267056877262142 0.1044783865703625
-0.9617211824136073 0.2532644839814679 0.1046397078100532
-0.97563114092697 0.1923592196284289 0.1055547605628471
-0.9856953639463971 0.1309377500972643 0.1061129355641694
-0.9920730524657434 0.06757770189722423 0.1059448572493818
-0.9944655725196114 0.003268186724957562 0.1050121137239501
-0.9927878577033349 -0.06058915786228404 0.1034467183933909
-0.9872140798094462 -0.1229610898406393 0.1014343679981786
-0.977695303445649 -0.185291316882367 0.09888893521682762
-0.9606862614998365 -0.2610832556226292 0.09443220107016562
-0.9421405812979182 -0.323142485824531 0.08916310294490191
-0.9232302532869963 -0.3747664188852652 0.08482942114350421
-0.9079491470595404 -0.4108465937072521 0.08266451955343809
0 0 0
0 0 0
0 0 0
0 0 0
0 0 0
0 0 0
0 0 0
0 0 0
0 0 0
0 0 0
0 0 0
0 0 0
0 0 0
0 0 0
0 0 0
0 0 0
0 0 0
0 0 0
0 0 0
0 0 0
0 0 0
0 0 0
-0.8033830756963805 0.5879622700091227 0.09421254019684883
-0.8256426877943828 0.555886091150419 0.0964614210820829
-0.8581532393396065 0.5036280572611611 0.09965840531680219
-0.8844416351453337 0.4551072252664177 0.103152351072334
-0.9096602265779882 0.4014775482045778 0.1064614975929023
-0.9335435259719871 0.3413990130142188 0.1092849441995863
-0.9549738925988321 0.2748779961424593 0.1116555045277219
-0.9714035452949549 0.2084221145383959 0.1137337872390425
-0.9833206881020146 0.1408507527290134 0.1150716724752472
-0.9907185900500277 0.07190524587998569 0.1153529841149489
-0.9934250638970533 0.002174427119426298 0.1144635937223597
-0.9913655948387049 -0.06747970832366942 0.1124310737058612
-0.9845963060765544 -0.1364445501753846 0.1093297708213114
-0.9731069199065965 -0.2049626706312898 0.105134323974551
-0.9564928377883152 -0.274200183167619 0.09967803574759806
-0.9367351505927114 -0.3372839503482991 0.0936311619146952
-0.9148921543588103 -0.3940018099824008 0.08794839181750883
-0.8913754837312532 -0.4455888493756042 0.08306819075313344
-0.8617700228387682 -0.5012434148385683 0.07815028354036353
-0.8412414297336529 -0.5353904821620666 0.0752986620727665
0 0 0
0 0 0
0 0 0
0 0 0
0 0 0
0 0 0
0 0 0
0 0 0
0 0 0
0 0 0
0 0 0
0 0 0
0 0 0
0 0 0
0 0 0
0 0 0
0 0 0
0 0 0
0 0 0
-0.7496221201071995 0.6555862999966325 0.09095757419100502
-0.7797402798001108 0.619034464002584 0.09381592846781177
-0.8093307511637017 0.5791397389153315 0.09788206183913127
-0.8407597464855439 0.5315448034407646 0.1028745382720249
-0.8703923315806487 0.4802834014868804 0.1083745513568286
-0.8984410537182098 0.424057895375057 0.1139235461341927
-0.9244265003832927 0.3622705370572712 0.1191457232523858
-0.9473814102398902 0.2952072677928512 0.1237785626599218
-0.9659998942212814 0.2248899541796024 0.1275488646502554
-0.979785934450826 0.1520047061237881 0.1300541885851519
-0.9883749975977592 0.07722073037063042 0.1309649683108252
-0.9914983583402136 0.001452805574515959 0.1301110862479576
-0.9890571816016726 -0.07426255612865855 0.1274792699986685
-0.9811410257331368 -0.1489678963882893 0.1231700185474358
-0.9679794315449097 -0.2219119568740323 0.1173494929785834
-0.9499560121672247 -0.2922693578757712 0.1102823530499211
-0.9281643981540826 -0.3577651248137807 0.1025425056561872
-0.9035308772834321 -0.4179070182086058 0.09479281580068727
-0.8766338749631462 -0.4731428017354504 0.08745820963767016
-0.8474842405418284 -0.5246529027013234 0.08068329269629221
-0.8196232596148715 -0.5679507689413079 0.07516406293748112
-0.7911695134405228 -0.6074751858517834 0.07088511533902703
0 0 0
0 0 0
0 0 0
0 0 0
0 0 0
0 0 0
0 0 0
0 0 0
0 0 0
0 0 0
0 0 0
0 0 0
0 0 0
0 0 0
0 0 0
0 0 0
-0.6461797827962952 0.758447249021699 0.08490853170765154
-0.6741135685506542 0.7334535896007413 0.08727387121979605
-0.7173242107322814 0.690785989863815 0.09088835406793491
-0.7528513213609068 0.6511727059135326 0.09585924576369231
-0.7864679756111929 0.6091077449284092 0.1022539896838238
-0.8198920801607726 0.5618914827053828 0.1097949841877451
-0.8523350109075151 0.5094984885251266 0.118052189187228
-0.8833008359491101 0.4514098404133716 0.1265258439591578
-0.9120456486987606 0.3873364500635612 0.134696730256584
-0.9375556027779314 0.3175103281197569 0.1420446522646787
-0.9586940086878175 0.2428847073507707 0.1480297829533397
-0.9745856304172565 0.1644497573338615 0.15211550314492
-0.9845680458523585 0.08335732256950208 0.1538743638833703
-0.9882151090920802 0.0009561244248601179 0.1530685597639557
-0.9853865235060814 -0.08130175803931691 0.1496777319186623
-0.9762446909264734 -0.1619980106913797 0.1438851902382925
-0.9612313600764132 -0.2398455317587433 0.1360455559767171
-0.9410501647863225 -0.3136566736277542 0.1266652219214378
-0.9167078952480701 -0.3822289033696095 0.116394588442585
-0.8891997664170381 -0.4450952961441099 0.1058959524923946
-0.8593564426324373 -0.5023437891323753 0.09569337503845032
-0.8278365161313175 -0.5543155868856492 0.08614483556882856
-0.79559154539292 -0.6008505158759819 0.07754192718053263
-0.7612454647315501 -0.6447075109218785 0.06969625374840059
-0.7194935979249329 -0.6917535286357364 0.06169293448233745
-0.6922396625324002 -0.719405024711102 0.05710218942778857
0 0 0
0 0 0
0 0 0
0 0 0
0 0 0
0 0 0
0 0 0
0 0 0
0 0 0
0 0 0
0 0 0
0 0 0
0 0 0
-0.5840959208428542 0.8077853332788288 0.0794657825378241
-0.6166540339201285 0.7828758433304388 0.08272373528611127
-0.6496405003899622 0.755240328851453 0.08705897960249839
-0.6866794769077402 0.7209951576990106 0.09293696018426052
-0.722854476734704 0.6836419500171486 0.1005738019632714
-0.7586264519292368 0.6421819195086105 0.1099467538833839
-0.7943625414637547 0.5953173032298008 0.1207702827455561
-0.8296265106337194 0.5423493090908248 0.1325785796515546
-0.8637308504772693 0.4827110547709108 0.144772426710915
-0.8957257369863371 0.4160971966252517 0.1566477802616087
-0.9244277544551243 0.342640682307554 0.1674236829748708
-0.9485455120234108 0.2630313049882713 0.1762837037743759
-0.9668950317402619 0.1783896440676737 0.1824585774509002
-0.9785225927287091 0.0902303037260911 0.1853430004315823
-0.982813967882523 0.0003764636022279662 0.1845983824689883
-0.979575577550033 -0.08920133528516148 0.1802076847719408
-0.9690574796621456 -0.1765809477722876 0.1724725195348248
-0.9519119072165581 -0.260061606709549 0.1619619758306944
-0.9291085350688523 -0.3382706048668169 0.1494333562001764
-0.9018237923647724 -0.4102311001766269 0.1357361115278222
-0.871241304931949 -0.475532222788123 0.1216868672892077
-0.8384136164257686 -0.5342345920068859 0.1079629959527786
-0.8042060648079389 -0.5866993800989472 0.09506020575214287
-0.769276992783508 -0.6334623476617387 0.08329683348627609
-0.7335347629081952 -0.6757450765453062 0.07276910834959914
-0.6967612145009123 -0.7144809742608238 0.06356687334231013
-0.6638150028030672 -0.7457451328414324 0.05669073025528634
-0.6314860974683476 -0.7736394754507193 0.05203143980837079
0 0 0
0 0 0
0 0 0
0 0 0
0 0 0
0 0 0
0 0 0
0 0 0
0 0 0
0 0 0
0 0 0
-0.5152159722086483 0.8538395587194878 0.07423280909952845
-0.5489603207891136 0.8322603993318174 0.07736403494619948
-0.5818641057606221 0.8091374311839279 0.08204133034309895
-0.615644478779748 0.7830301877724398 0.0885753960480526
-0.6513469895940814 0.7525268229128255 0.09721357900754468
-0.6879250339586691 0.7176898537263012 0.1080759987753242
-0.7252384210852488 0.6777637208687818 0.1211014915510087
-0.763180887513598 0.6317114131683641 0.1359986154590731
-0.8012716399041838 0.578604773593444 0.1522506980612529
-0.838695288974151 0.517674041345252 0.1691265773609789
-0.874310375957579 0.4484400287556695 0.1856957379762137
-0.906693134371457 0.3708907104126968 0.2008672223465729
-0.9342605087651643 0.2856342102665709 0.2134722457071373
-0.9554704456728846 0.1939431860064759 0.2224011421897744
-0.9690326478200458 0.09772003457220424 0.2267741658612768
-0.974104258346797 -0.0006526418753057227 0.226098358970645
-0.9704251596238932 -0.09857075158110201 0.2203606509830594
-0.958352114983077 -0.193518637595279 0.2100279995875068
-0.9387830749123428 -0.2833496312429286 0.1959574564353767
-0.9129994170297135 -0.366473287473346 0.1792467407566487
-0.8824687578005653 -0.4419354161413956 0.1610651404427976
-0.8486390606956162 -0.5094174976059583 0.1424975711882307
-0.8127901518781797 -0.5691114267108147 0.1244361402367735
-0.7759553964930873 -0.6215539502465619 0.1075356200807413
-0.7388795771362652 -0.6674969711629875 0.0922212772584034
-0.7019528264806791 -0.7078585843993339 0.07873026030667153
-0.6655736938053994 -0.7432966442359932 0.06724400926288766
-0.6309866073715122 -0.7736184776359185 0.05805473605204203
-0.5974441171024657 -0.8002796982035073 0.05111684245880152
-0.5635593723700417 -0.8247776213354168 0.04628940654378735
0 0 0
0 0 0
0 0 0
0 0 0
0 0 0
0 0 0
0 0 0
0 0 0
0 0 0
-0.4472236317387273 0.8917510344748921 0.06907326347714213
-0.4785120360200403 0.8751294656777833 0.07193503796115529
-0.5096428551815072 0.8569925474732517 0.07634090474802457
-0.5415357083269499 0.8365795467570658 0.08290801260777164
-0.5748342967763788 0.8130852690218571 0.09196671435503066
-0.609977284852939 0.7855987835592434 0.1037413284745906
-0.646826007182989 0.7534003731706564 0.1183384727720742
-0.6852914385584096 0.7155155999269739 0.1356947696106516
-0.7251708693511985 0.6707776834697761 0.1555136958706453
-0.765947243085093 0.6179951466751591 0.1772196927440446
-0.8067167930928179 0.5560911589021964 0.1999265833571196
-0.8461608162054203 0.4842902626999417 0.2224293473725934
-0.8825777817799464 0.4023534832396629 0.243245007417006
-0.9140106422697116 0.3108120020620816 0.2607305988791286
-0.9384791746768361 0.2111167123764531 0.2732884418581255
-0.9542788776582861 0.1056366110863989 0.2796296301421262
-0.9602801348908683 -0.00254490907231038 0.2790261385099774
-0.9561389357755478 -0.1100190366004114 0.271466659241093
-0.9423473813550319 -0.2135273698365298 0.2576576705320596
-0.9201097197231898 -0.3103856958116074 0.2388698882372093
-0.8910942498146855 -0.3987449143106924 0.2166876352230575
-0.8571443328511599 -0.4776546256609568 0.1927424479605633
-0.8200230767656964 -0.5469649353970713 0.168497813095001
-0.7812430987581374 -0.6071237229507119 0.1451206590160412
-0.7419863077933156 -0.6589527145469811 0.123440832135916
-0.7030891541827905 -0.7034589219308108 0.1039768552441801
-0.6650811275300329 -0.7416856114929823 0.08700314653884998
-0.6283587256250711 -0.7745242176605809 0.07264673556396774
-0.5933441242707909 -0.8026370517227445 0.06096321345818491
-0.5598970959446874 -0.8269359025738685 0.05188694428318565
-0.5276700193391098 -0.8482382163525728 0.04534621273787663
-0.4960067685143167 -0.8673314292787194 0.04139417076495434
0 0 0
0 0 0
0 0 0
0 0 0
0 0 0
0 0 0
0 0 0
0 0 0
-0.4149618012820496 0.907347497058133 0.06728464207453129
-0.4374690711704357 0.8964590018948357 0.07058377781750472
-0.4653211010272917 0.8818326195214785 0.07646897466708909
-0.4954576533595717 0.8644448130474022 0.08518731667840967
-0.5275912179536644 0.8439368273489233 0.09704709260148899
-0.5619339404140832 0.8195224665697474 0.1123083852530095
-0.5986161195074184 0.7902305870382317 0.1311272693801382
-0.6376810822732765 0.7548540028673261 0.1534870407101433
-0.6789802317835355 0.7119721870550006 0.1791129523716677
-0.7220284669840996 0.6600509863848419 0.2073827095902348
-0.7658896495445415 0.5976017182507908 0.2372450864912512
-0.8091026179506576 0.5234238286556452 0.2671711983370537
-0.8496822515092133 0.4369307666136233 0.2951805831294887
-0.8852450101064456 0.338506673096596 0.3189898185690457
-0.9132889028196972 0.2297831510056623 0.3363080187867991
-0.9316004151531774 0.1136981323145506 0.3452439734370612
-0.9386895779081547 -0.005767227176963494 0.3447152671659598
-0.9341059742545572 -0.1241596917036299 0.3347094259473485
-0.9185127396870784 -0.2372708077010103 0.3162861218034188
-0.8934947438640183 -0.3417606943036545 0.2913190184599281
-0.8611892775909368 -0.435504196826035 0.262086097894013
-0.8238803343195105 -0.5176155439018235 0.2308578424762529
-0.7836729560500332 -0.5882335859404625 0.1995944546509916
-0.7423008132821387 -0.6481976943970772 0.1697917889033161
-0.7010586959395281 -0.6987293744259276 0.1424568922934926
-0.6608225753139549 -0.741181403933219 0.1181678908122447
-0.6221264609263231 -0.7768627928170888 0.09717441922502346
-0.585285386121333 -0.8069198091362219 0.07950747396543922
-0.5504968657380613 -0.832297359460312 0.06507154714591133
-0.517858612248465 -0.8537783584633791 0.05371193852088452
-0.4879582703190738 -0.8716873113972855 0.04536471730529139
-0.4641702499895282 -0.8848243039262795 0.04039715591515697
0 0 0
0 0 0
0 0 0
0 0 0
0 0 0
0 0 0
0 0 0
-0.3232454617616621 0.9442389750689018 0.06265085323695967
-0.3604177604443717 0.930508279822189 0.0652179357126091
-0.3878424270999081 0.9190740038471882 0.0698657798464367
-0.4149232930258532 0.9065484290329272 0.07751520317017248
-0.4433561391685646 0.8919575463194205 0.08858368600020385
-0.4738003297548504 0.8745335885182349 0.1034613458138502
-0.5067300651529644 0.8533566239796656 0.12250352394972
-0.5424951629842769 0.8272790692856905 0.1459737636031347
-0.5813077776157675 0.794870719028231 0.1739592127912742
-0.6231537801206075 0.7544120081225513 0.206256850363562
-0.6676547530312528 0.7039595070673489 0.2422357181843166
-0.7139173178820487 0.6415093361277987 0.28069170790918
-0.760403880589786 0.5652934040047919 0.3197331790300608
-0.8048816747278987 0.4742197931118701 0.3567647369179689
-0.8445282368791458 0.3684019113384528 0.3886542021334334
-0.8762573266661753 0.2496223936816989 0.4121428854614209
-0.8972544688676453 0.1215008913335818 0.4244666671273309
-0.9055895324301001 -0.01083341874662338 0.4240167871574103
-0.9006778558930425 -0.1415710517277645 0.4107761400283685
-0.8833878243204577 -0.2652919520006935 0.3863238693713208
-0.855755547981479 -0.3778722070449744 0.3534049196628111
-0.8204541059586756 -0.4769289530801622 0.3152678761456839
-0.7802420307458782 -0.5617625460838228 0.2750367525894828
-0.7375582862336078 -0.6329654658241841 0.2352923574664436
-0.6943175664222132 -0.6919238593968371 0.1979002015029824
-0.6518723210926932 -0.7403765940152098 0.1640273636551574
-0.6110765866605535 -0.7801017844986758 0.1342632155777151
-0.5723959744805265 -0.812730599776272 0.1087741724206122
-0.5360259407249139 -0.8396599017157187 0.0874496444859563
-0.501977206729414 -0.8620420510721097 0.07001704155078738
-0.4700968910579327 -0.8808288724331721 0.05611960892390749
-0.4400197775242614 -0.896841804305191 0.04535827860609662
-0.4103360475690116 -0.9111750362739229 0.03720727531890187
-0.3719208624719589 -0.9277621865006094 0.03053190720741562
0 0 0
0 0 0
0 0 0
0 0 0
0 0 0
-0.2495501391604387 0.9666414627310851 0.05769757858102281
-0.2809545783497457 0.9578510635267867 0.05988209252288747
-0.3093771839369526 0.9488210435572972 0.06343804349191351
-0.3346419463627312 0.939771133082225 0.06960592762052127
-0.3595000435931016 0.9297803713891046 0.07917183612937245
-0.3854688182747349 0.9180524508254154 0.09270106618225578
-0.4134345452454223 0.9037771553830497 0.1107191501296556
-0.4440502556682149 0.8859662003945922 0.1337283148752036
-0.477840885930737 0.8633502943649528 0.1621553482092937
-0.5151943050936015 0.8343015526378658 0.1962542923483888
-0.5562758345453634 0.7967931431260151 0.2359616133362042
-0.6008814821975467 0.7484300266595748 0.2807025820088356
-0.6482498197122708 0.6866029787551257 0.32916336492325
-0.6968690029672716 0.6088301200881354 0.3790771393487967
-0.7443519007726893 0.5133282403449912 0.4271233609630817
-0.7874924311172919 0.3997690036944885 0.4690846561315906
-0.8226175122362951 0.2700161609380854 0.5003915480845238
-0.8462586940269695 0.1284802590430573 0.5170483979474225
-0.8559810043378607 -0.0182685962745114 0.5166844090960224
-0.8510335864700983 -0.1626892170866267 0.4992735255784966
-0.8325043839643819 -0.2978479728389344 0.4671434851903875
-0.802914987595913 -0.4187179967530614 0.4242673236167941
-0.7654892262894464 -0.5227271585123148 0.3752100241044015
-0.7234349477117125 -0.6095426566299114 0.3241907250028929
-0.6794646673510644 -0.6804142062896159 0.2745255428931508
-0.6355983204633632 -0.7374409613383478 0.2284635716356657
-0.5931737647189538 -0.7829868982678283 0.1872869509337698
-0.5529638073624836 -0.8193107496373934 0.1515286219689138
-0.5153226214197671 -0.8483818601508907 0.1212056732169469
-0.4803158670101964 -0.871824185713327 0.09601696258233296
-0.4478059643944278 -0.8909384641773763 0.07548821962421498
-0.4174704482111667 -0.9067687863521894 0.05906600517848137
-0.3887104105660296 -0.9202025271639057 0.04616844938645399
-0.3602632288670261 -0.9321479498946093 0.03620228492210346
-0.3295725252610834 -0.9436958707798823 0.02863658614486018
-0.2968558166367747 -0.9546283535879296 0.02369241766709182
0 0 0
0 0 0
0 0 0
0 0 0
-0.2169720938106508 0.9746266944886233 0.05500833480120656
-0.2354272141822526 0.9702021258108249 0.05728753699138626
-0.2568271451373632 0.9644724049304139 0.06190959253891877
-0.2780522375640936 0.9580408272568275 0.06960406952652905
-0.2995155453324174 0.9506384261161153 0.08109883412047095
-0.3221083350775314 0.9417125115255076 0.0970760841294135
-0.3466428004215301 0.9305176774970582 0.118218529771774
-0.3738361207708643 0.9160568499421291 0.1452115783300177
-0.4043306839964144 0.8969870366784043 0.1786923445754908
-0.4386692049731956 0.8715192465635121 0.2191427194262956
-0.4772085705247885 0.8373382302838188 0.2667145821338796
-0.5199659875718063 0.7915871955628773 0.3209752071256826
-0.5664006219133545 0.7309928536263572 0.3805782225027596
-0.6151586693890928 0.6522339984711203 0.4429115292175346
-0.663860351713017 0.5526474744005638 0.5038553388246938
-0.7090738641674498 0.4312615978102654 0.5578778445222372
-0.7466527151254063 0.2899086494712788 0.5987175443876668
-0.7725204266346313 0.1338747378746643 0.620717121554768
-0.7837279039117695 -0.0285250297788897 0.6204489465751208
-0.7793259172896175 -0.1876149259778596 0.5978726906215218
-0.7605832222879897 -0.3346428797165729 0.5563517817253911
-0.7304495428666333 -0.4636000903151232 0.5015161229569151
-0.6926073848004503 -0.5718554605895131 0.4396320537834296
-0.6505917284153538 -0.6596722909073508 0.3762484173077272
-0.6072598615003874 -0.7291765718066335 0.3154948299716736
-0.5646265733142152 -0.783332250349528 0.2599758032390537
-0.5239368227652187 -0.8252056746318452 0.2110113748263079
-0.4858372190242751 -0.8575567874158985 0.1689927601043352
-0.450555055651036 -0.882677808740967 0.1337162210935388
-0.4180412163851359 -0.9023810962614938 0.104641762758184
-0.3880614868614676 -0.9180608394038955 0.08107143496868331
-0.3602345989665257 -0.930781586929623 0.06226291946414354
-0.3340278931801575 -0.9413654364190616 0.04750243881291085
-0.3087873603188683 -0.9504429829744711 0.03617322520724797
-0.2843062317095897 -0.9583274328833036 0.02790157691582445
-0.263936719220094 -0.9642666930759849 0.02295980992162126
0 0 0
0 0 0
0 0 0
-0.1332407801006538 0.989840702445729 0.04962134923512895
-0.163592043309354 0.9851740031359605 0.05167036782273426
-0.1831441246942512 0.9815564442718745 0.05481948830781495
-0.2008127523875996 0.9777573324337507 0.06053790011680176
-0.217967624941492 0.9734672294989802 0.06965391280426571
-0.2353568357213284 0.968363198512214 0.08294501580226267
-0.2537348816406426 0.9619646047128064 0.1012062701542874
-0.2738428722721766 0.9535802813214354 0.1252786030439997
-0.2964005220961662 0.9422296231338849 0.1560450825566018
-0.3221059221472552 0.9265332218430792 0.1943809757634455
-0.35160795696797 0.9045834073903918 0.2410408755186521
-0.3854280800220969 0.8738177679769235 0.2964586033467521
-0.4238129021190733 0.8309458523687565 0.3604325379714893
-0.4665060665352803 0.7720237210527454 0.431684449589805
-0.5124520777896664 0.6928227975918207 0.5073356276727432
-0.5595022912393507 0.5896565690887025 0.5824622877306794
-0.6042842822372116 0.4607213790911859 0.6500587028025802
-0.6424682007359852 0.3076791843480505 0.7018319817178353
-0.6695931349740895 0.1367254100797964 0.7300350647976314
-0.682301672639823 -0.04183085013245667 0.7298730077829264
-0.6794219621646237 -0.2158345611273793 0.7012854194629486
-0.6622653463610058 -0.3744829038101255 0.6489739330383564
-0.6339877290379763 -0.510785595179944 0.5806527664499148
-0.5984679494159727 -0.622238797249078 0.5046335231827757
-0.559316471426651 -0.7099405845843856 0.4279596372916736
-0.5193357088274635 -0.7770787847192426 0.3555825978249502
-0.4804056156394336 -0.8275789347735075 0.2903851772753612
-0.4436142091679003 -0.8652316231351567 0.2336250666158063
-0.409467515641149 -0.8932746373775531 0.1854636779875398
-0.3780845650708007 -0.9142795035425961 0.1454133799109519
-0.3493419328589472 -0.9301980532174338 0.1126578702837517
-0.322963935791542 -0.9424721171601699 0.08625893897830615
-0.2985682031805271 -0.9521530221638564 0.06528131764743973
-0.2756852210606616 -0.960004984705133 0.0488680696368407
-0.2537844666699133 -0.9665796631733987 0.03629323926940561
-0.2323100823447895 -0.9722669684281829 0.02699940266797267
-0.2100602164158513 -0.977472646642531 0.02054094800565364
-0.178108531730261 -0.983878872079143 0.01611570666038427
0 0 0
0 0 0
-0.1023309090717977 0.9936394852911729 0.04699955658122981
-0.1157458298316115 0.9920787627056966 0.04881220610590215
-0.1294040328629318 0.9901964531647616 0.05258878605496622
-0.1423764949447557 0.9880394296935391 0.05922008998736274
-0.1549658512942934 0.9854698228869816 0.06953282039249881
-0.1676677060912502 0.9822278996406927 0.0843557555921991
-0.1810699084928565 0.9778939841895132 0.1045803228353594
-0.1958050545137345 0.9718281156553332 0.1311887733332275
-0.2125330259047319 0.9630792504352805 0.1652515363946613
-0.2319342309097713 0.9502590089788304 0.2078805627923481
-0.2546878850760349 0.9313829937713145 0.2601149747882255
-0.2814116645619371 0.9036980207848041 0.3227032108270803
-0.3125390086547034 0.8635460881064295 0.3957366823851657
-0.348112340461024 0.8063737710960838 0.4780995081643865
-0.3874877977853076 0.7270746458679773 0.5667589133868541
-0.4289999784055368 0.620906922638236 0.6560743951321101
-0.4697359704654073 0.4851355241864221 0.737557890082729
-0.5056765844062479 0.3211346036630857 0.8007270185983381
-0.5324389864600547 0.1359678991705245 0.8354767836945219
-0.5465364154051237 -0.05797413026414168 0.8354262067090269
-0.5465709899566448 -0.2459175808779218 0.8004902849834991
-0.5336200860902078 -0.4149650115851473 0.7369217345697013
-0.5106024599937845 -0.5572595713482181 0.6547876739746218
-0.4811249650186001 -0.6706247657562889 0.5646071125926178
-0.4484911653272207 -0.7571636713901022 0.4749303626327678
-0.4152001702488828 -0.8212059491887155 0.3914455359847124
-0.3828760065097259 -0.867634192969294 0.3172016248850023
-0.3524220585871797 -0.9009094942025311 0.2532997747273251
-0.3242321817157017 -0.924677933981793 0.1996101469040052
-0.2983732399664073 -0.9417249921052829 0.1553301288103916
-0.2747140357606564 -0.9540890412128629 0.1193578652356528
-0.2530046748299773 -0.9632211967292107 0.09051828923330417
-0.2329212135123986 -0.9701369413456488 0.06769064434927653
-0.2140956419555096 -0.9755383698693976 0.04987930440790221
-0.1961563705689163 -0.9799020323872858 0.03625858806540073
-0.1788001993721892 -0.9835361997872684 0.02621130314355725
-0.1619189307479277 -0.9866138595111561 0.01937400541828357
-0.1466565062702363 -0.9890625994811618 0.01571761674600343
0 0 0
0 0 0
-0.05862914222941468 0.9972799287592724 0.04466953520402109
-0.06548853972777878 0.9967736294030203 0.04640671170265208
-0.07381766589079873 0.9959907725158471 0.05053051816199847
-0.08196238441466519 0.9949578840326055 0.05780118115075535
-0.08969787801092051 0.993575667786916 0.06900494954799685
-0.09727007186363104 0.9916223856530442 0.08499163130219939
-0.1050975059490124 0.9887191916709061 0.1067186687741499
-0.1136761258537028 0.9842652422377131 0.1352762777933683
-0.1235513395696994 0.9773382650696553 0.171886538510637
-0.1353113217510042 0.9665544157988064 0.2178609820638467
-0.1495764823960367 0.9498858390518691 0.2744881940680771
-0.1669646134300213 0.9244493656877883 0.342806342038196
-0.1880097307050159 0.8863151266945721 0.4231995242821185
-0.2130103888942971 0.8304520136437789 0.5147582221374349
-0.2417906444380861 0.7510301689706724 0.6144029374588778
-0.2733930449143167 0.6423946218862856 0.7159506915731376
-0.3058083495771503 0.5009582380932418 0.8096431911746148
-0.3359641848067668 0.3277842658450859 0.882998041669132
-0.3602272493777455 0.1306784844561767 0.9236663155631365
-0.3754352337244015 -0.07608649387514478 0.9237203206209611
-0.3799960236215081 -0.2753647296237987 0.8830499916262124
-0.3743560283729263 -0.4524347965802335 0.8094197420771567
-0.3605627896867821 -0.5988105195887007 0.7151366556981925
-0.3413258404159774 -0.7127749853681837 0.6127385175568058
-0.3191846015100129 -0.7974367449257876 0.5120701397280044
-0.2960831468780821 -0.858169194390868 0.4193809770760947
-0.27330294217191 -0.9006728714524337 0.3377778566303669
-0.251578608252164 -0.9299451552044958 0.2681607953851382
-0.2312576092757677 -0.9499337297291942 0.2101090842273081
-0.2124366524136081 -0.9635634502953637 0.1625304462745165
-0.1950571417454305 -0.9729124793173192 0.1240726361561214
-0.1789649027376944 -0.9794159869083741 0.09335892124688813
-0.1639475890528223 -0.98404508179856 0.06911197459074642
-0.1497675082593611 -0.987445210685954 0.05021602695508436
-0.1362155811873806 -0.9900338702179609 0.03575263994489931
-0.1232360613784422 -0.9920614737972407 0.02503807866380624
-0.1112665753989066 -0.9936330644730098 0.01769413419680681
-0.1022772250389396 -0.9946604576112006 0.01378199198268153
0 0 0
0 0 0
-0.007111393499878444 0.9990666140229152 0.04260667585340126
-0.01156660916108959 0.9989568102977197 0.04417583855819523
-0.01618794137695916 0.9986949845548579 0.04843839777436739
-0.01998369424467809 0.9982260113564219 0.05608459873961295
-0.02289310342849015 0.9974332476747397 0.06784410253244819
-0.02513725229632844 0.9961011958850776 0.08456078348329502
-0.02703373265254228 0.9938673284214038 0.1072236484893686
-0.02894499772820514 0.9901500473634207 0.1369856591498881
-0.03126907844342522 0.984042822054239 0.1751626932221232
-0.03444429228362726 0.9741652798879341 0.2231940818882585
-0.03895467652204577 0.9584663485304493 0.2825328156369973
-0.04532516166654477 0.9339893169650328 0.354414426223161
-0.05409308812815846 0.896645371168645 0.4394326070953332
-0.06573798563066818 0.8411163656684597 0.5368442759775908
-0.08054910842776446 0.7611267529731743 0.6435820903661041
-0.09842158813962427 0.6504467193486394 0.7531482299498989
-0.1186164496818537 0.5049465062487569 0.8549614983682281
-0.1396057083408587 0.3255059341533565 0.9351770597216322
-0.1591985442692199 0.1204672381037433 0.9798691076088769
-0.1750686182596358 -0.09458015021340324 0.9800028439174406
-0.1855035234190966 -0.3008701116987068 0.9354494206986864
-0.1899259094728046 -0.4825044866958493 0.855054132338592
-0.1888706080010483 -0.6306931151489099 0.7526978729457642
-0.1835383933335066 -0.7441581603135191 0.6422945512857425
-0.1752865191733653 -0.826772500946193 0.5345295762399515
-0.1652993005187868 -0.8846449065128463 0.4359811126974156
-0.1544667921901037 -0.9240202114470044 0.3497522822626496
-0.1433925764445916 -0.9502323373004156 0.2765810444863682
-0.1324507723817355 -0.967403896962011 0.2158390442857723
-0.1218467810865229 -0.9785287870591108 0.1662371042682037
-0.1116649760405348 -0.9856926286906028 0.1262575735188808
-0.1019018312482753 -0.9903060699979054 0.09439229054086541
-0.09248955677221879 -0.9933018878262753 0.06926067808529941
-0.08331886275513593 -0.9952847131131717 0.04966192658789815
-0.07427499032049603 -0.9966374925010084 0.03459673906876505
-0.06531934747209202 -0.9975927144504126 0.0232843063301668
-0.05671996213714558 -0.9982742460823438 0.01521103230844142
-0.0498069885422905 -0.9987052198011381 0.01035122380727658
0 0 0
0.08300317532145007 0.9957850648033845 0.03902022041295393
0.05487182855692986 0.997698583464062 0.03983238612765354
0.04583589651377631 0.9980812475486978 0.04162804201992547
0.04291570166981289 0.9980169022158719 0.04604894615104457
0.04282947543055134 0.9976282359183074 0.05388449621987252
0.04454757923368431 0.9968330668117542 0.06587374359402218
0.0476126599918413 0.9954233041157126 0.08285819351071089
0.05172940825034592 0.9930377822424113 0.1058302006099478
0.05665051643064452 0.9890940113106066 0.1359549770241404
0.06213438262551892 0.9826823412265397 0.174570142742886
0.06791906554720915 0.9724158026318759 0.2231468290767272
0.07369780848914351 0.9562308586217375 0.2831804690359693
0.07909235890143161 0.9311485347621515 0.355958993387869