# OOMMF: rectangular mesh v1.0
# Segment count: 1
# Begin: Segment
# Begin: Header
# Title: 
# meshunit: m
# valueunit: (none)
# valuemultiplier: 1
# xmin: 0
# ymin: 0
# zmin: 0
# xmax: 9.357999999999999e-08
# ymax: 9.357999999999999e-08
# zmax: 2.3395e-08
# ValueRangeMaxMag: 1
# ValueRangeMinMag: 0
# meshtype: rectangular
# xbase: 1.16975e-09
# ybase: 1.16975e-09
# zbase: 1.16975e-09
# xstepsize: 2.3395e-09
# ystepsize: 2.3395e-09
# zstepsize: 2.3395e-09
# xnodes: 40
# ynodes: 40
# znodes: 10
# End: Header
# Begin: Data Text
0 0 0
0 0 0
0 0 0
0 0 0
0 0 0
0 0 0
0 0 0
0 0 0
0 0 0
0 0 0
0 0 0
0 0 0
0 0 0
0 0 0
0 0 0
0 0 0
-0.9841246245444134 0.1766377531233561 0.01725768051765457
-0.9917316562395334 0.1271450841332734 0.01739107797505772
-0.9969021182018982 0.07668477832322286 0.01748174756958848
-0.9995178608985429 0.02562866309996256 0.01752761742250063
-0.9995178608985429 -0.0256286630999627 0.01752761742250063
-0.9969021182018982 -0.076684778323223 0.01748174756958848
-0.9917316562395334 -0.1271450841332736 0.01739107797505772
-0.9841246245444134 -0.1766377531233563 0.01725768051765457
0 0 0
0 0 0
0 0 0
0 0 0
0 0 0
0 0 0
0 0 0
0 0 0
0 0 0
0 0 0
0 0 0
0 0 0
0 0 0
0 0 0
0 0 0
0 0 0
0 0 0
0 0 0
0 0 0
0 0 0
0 0 0
0 0 0
0 0 0
0 0 0
0 0 0
0 0 0
0 0 0
0 0 0
-0.9266033312627836 0.3756499991605879 0.01712730636623041
-0.9433167122765673 0.3314356016106858 0.01743623596682714
-0.958385943768862 0.2849255508502023 0.01771477516020609
-0.9715109249745392 0.2363134682370501 0.01795737689341408
-0.982408234949751 0.1858610174229257 0.01815880242278151
-0.9908262184920539 0.1338954349313585 0.01831440016158785
-0.9965599334660938 0.08080215676752103 0.01842038196595196
-0.9994643720212243 0.02701255059516814 0.01847406751539609
-0.9994643720212243 -0.0270125505951683 0.01847406751539609
-0.9965599334660938 -0.0808021567675212 0.01842038196595196
-0.9908262184920539 -0.1338954349313587 0.01831440016158785
-0.982408234949751 -0.1858610174229259 0.01815880242278151
-0.9715109249745391 -0.2363134682370502 0.01795737689341408
-0.958385943768862 -0.2849255508502023 0.01771477516020609
-0.9433167122765673 -0.3314356016106859 0.01743623596682714
-0.9266033312627836 -0.3756499991605879 0.01712730636623041
0 0 0
0 0 0
0 0 0
0 0 0
0 0 0
0 0 0
0 0 0
0 0 0
0 0 0
0 0 0
0 0 0
0 0 0
0 0 0
0 0 0
0 0 0
0 0 0
0 0 0
0 0 0
0 0 0
0 0 0
0 0 0
0 0 0
-0.8787238686360371 0.4770215286881344 0.01717043556092766
-0.8993692457042238 0.4368364907706229 0.01757385025038022
-0.9189968209218612 0.3938557803950833 0.01795737689341408
-0.9372680445195104 0.3481281308215324 0.01831440016158785
-0.953828005970478 0.2997745161621502 0.01863798503407645
-0.9683195519912416 0.2489964562263193 0.0189211526661495
-0.9804007230560833 0.1960801446112165 0.01915722110206373
-0.9897643345713876 0.1413949049387696 0.019340187895023
-0.9961578778414001 0.08538496095783421 0.01946511897592575
-0.999401464923973 0.02855432756925628 0.01952849929934182
-0.999401464923973 -0.02855432756925644 0.01952849929934182
-0.9961578778414001 -0.08538496095783438 0.01946511897592575
-0.9897643345713876 -0.1413949049387697 0.01934018789502299
-0.9804007230560833 -0.1960801446112167 0.01915722110206373
-0.9683195519912416 -0.2489964562263195 0.01892115266614951
-0.953828005970478 -0.2997745161621502 0.01863798503407645
-0.9372680445195104 -0.3481281308215326 0.01831440016158785
-0.9189968209218612 -0.3938557803950833 0.01795737689341408
-0.8993692457042238 -0.4368364907706231 0.01757385025038022
-0.8787238686360371 -0.4770215286881346 0.01717043556092766
0 0 0
0 0 0
0 0 0
0 0 0
0 0 0
0 0 0
0 0 0
0 0 0
0 0 0
0 0 0
0 0 0
0 0 0
0 0 0
0 0 0
0 0 0
0 0 0
0 0 0
0 0 0
0 0 0
-0.8435325615554523 0.5367934482625605 0.01748174756958848
-0.8664827168691834 0.498883988500439 0.01795737689341408
-0.8888237244427324 0.4578788883492864 0.01842038196595196
-0.910204494686158 0.4137293157664354 0.01886348664889355
-0.9302354765842741 0.3664563998665322 0.0192786177120835
-0.9484999932371846 0.3161666644123949 0.01965713975635166
-0.9645710381957151 0.2630648285988314 0.01999020330831043
-0.9780331554098031 0.2074615784202611 0.02026919827022978
-0.9885080065224288 0.149773940382186 0.02048628378811694
-0.9956811577863656 0.09051646888966948 0.02063494339580699
-0.999326792207432 0.03028263006689179 0.02071049716051592
-0.999326792207432 -0.03028263006689196 0.02071049716051592
-0.9956811577863655 -0.09051646888966966 0.02063494339580699
-0.9885080065224288 -0.1497739403821862 0.02048628378811694
-0.9780331554098031 -0.2074615784202613 0.02026919827022978
-0.9645710381957151 -0.2630648285988316 0.01999020330831043
-0.9484999932371846 -0.3161666644123949 0.01965713975635166
-0.9302354765842741 -0.3664563998665323 0.0192786177120835
-0.910204494686158 -0.4137293157664354 0.01886348664889355
-0.8888237244427323 -0.4578788883492865 0.01842038196595196
-0.8664827168691834 -0.4988839885004392 0.01795737689341408
-0.8435325615554522 -0.5367934482625606 0.01748174756958848
0 0 0
0 0 0
0 0 0
0 0 0
0 0 0
0 0 0
0 0 0
0 0 0
0 0 0
0 0 0
0 0 0
0 0 0
0 0 0
0 0 0
0 0 0
0 0 0
-0.7782982836490615 0.6276599061685979 0.01717043556092767
-0.802972006941479 0.5957534245049683 0.01771477516020609
-0.8277806218966042 0.5607546148331835 0.01826209067328374
-0.8524504656684303 0.5224696402483927 0.01880634468447888
-0.8766484106203718 0.4807426767918168 0.01934018789502299
-0.8999818038285261 0.4354750663686416 0.01985495778841139
-0.9220035841427787 0.3866466643179394 0.02034079152049922
-0.9422241144793464 0.3343375890088004 0.02078688695774468
-0.9601307612207075 0.278747640354399 0.02118193462834121
-0.9752152183107693 0.2202098880056574 0.02151472053302306
-0.9870070453453714 0.1591946847331243 0.02177486604599266
-0.9951101242222723 0.09630097976344559 0.02195363220367787
-0.9992372271417133 0.03223345894005517 0.02204468232703075
-0.9992372271417133 -0.03223345894005535 0.02204468232703075
-0.9951101242222723 -0.09630097976344576 0.02195363220367787
-0.9870070453453714 -0.1591946847331245 0.02177486604599266
-0.9752152183107694 -0.2202098880056577 0.02151472053302306
-0.9601307612207074 -0.2787476403543991 0.02118193462834121
-0.9422241144793464 -0.3343375890088004 0.02078688695774468
-0.9220035841427787 -0.3866466643179396 0.02034079152049922
-0.8999818038285261 -0.4354750663686416 0.01985495778841139
-0.8766484106203718 -0.4807426767918169 0.01934018789502299
-0.8524504656684303 -0.5224696402483929 0.01880634468447888
-0.8277806218966042 -0.5607546148331835 0.01826209067328374
-0.8029720069414789 -0.5957534245049685 0.01771477516020609
-0.7782982836490614 -0.6276599061685979 0.01717043556092766
0 0 0
0 0 0
0 0 0
0 0 0
0 0 0
0 0 0
0 0 0
0 0 0
0 0 0
0 0 0
0 0 0
0 0 0
0 0 0
-0.7317849772253332 0.6813170477615169 0.01725768051765457
-0.7572891643619226 0.6528354865188987 0.01785914560256872
-0.7833639672598784 0.621288663688869 0.01847406751539609
-0.8097944111636175 0.5864028494633092 0.01909737650782717
-0.8362984329924353 0.5479196629950438 0.01972242068800284
-0.8625194819400188 0.5056148687234593 0.02034079152049922
-0.8880228457479798 0.4593221615937826 0.02094223718885951
-0.91229810745201 0.4089612205819354 0.02151472053302306
-0.9347703092616028 0.3545680483406079 0.02204468232703075
-0.9548219779933864 0.2963240621358785 0.02251756070468076
-0.9718268762945493 0.2345789011745462 0.02291858711441849
-0.9851940988913379 0.1698610515329891 0.02323382624088762
-0.9944182327582486 0.1028708516646463 0.02345135893188491
-0.9991285313941312 0.03445270797910786 0.02356244187500438
-0.9991285313941312 -0.03445270797910806 0.02356244187500438
-0.9944182327582486 -0.1028708516646465 0.02345135893188491
-0.9851940988913379 -0.1698610515329894 0.02323382624088762
-0.9718268762945493 -0.2345789011745464 0.02291858711441849
-0.9548219779933864 -0.2963240621358787 0.02251756070468076
-0.9347703092616028 -0.3545680483406079 0.02204468232703075
-0.91229810745201 -0.4089612205819357 0.02151472053302306
-0.8880228457479798 -0.4593221615937826 0.02094223718885951
-0.8625194819400188 -0.5056148687234594 0.02034079152049922
-0.8362984329924352 -0.547919662995044 0.01972242068800284
-0.8097944111636175 -0.5864028494633092 0.01909737650782716
-0.7833639672598784 -0.6212886636888693 0.01847406751539609
-0.7572891643619225 -0.6528354865188988 0.01785914560256872
-0.731784977225333 -0.6813170477615171 0.01725768051765457
0 0 0
0 0 0
0 0 0
0 0 0
0 0 0
0 0 0
0 0 0
0 0 0
0 0 0
0 0 0
0 0 0
-0.6813170477615169 0.7317849772253332 0.01725768051765457
-0.7069933880228445 0.7069933880228445 0.01790805919018074
-0.7336339709480404 0.6792907138407782 0.01858286201573406
-0.7611017535689514 0.6483459382254032 0.0192786177120835
-0.7891944857964941 0.6138179333972733 0.01999020330831043
-0.8176310118060807 0.5753699712709457 0.02071049716051593
-0.8460385027094349 0.532690909113348 0.02143005555690273
-0.8739430633236571 0.4855239240686984 0.02213687478834274
-0.9007671153956371 0.433702685190492 0.02281632486575985
-0.9258376649818176 0.3771931227703703 0.02345135893188492
-0.9484095115245651 0.3161365038415218 0.02402310114442473
-0.9677060525832829 0.2508867543734436 0.02451188025509175
-0.9829771673245703 0.1820328087638092 0.02489869579158751
-0.9935689332286991 0.110396548136522 0.02516698397356066
-0.9989948450176764 0.03699980907472866 0.02530442167966062
-0.9989948450176764 -0.03699980907472886 0.02530442167966062
-0.9935689332286991 -0.1103965481365222 0.02516698397356066
-0.9829771673245703 -0.1820328087638094 0.02489869579158752
-0.9677060525832827 -0.2508867543734438 0.02451188025509174
-0.948409511524565 -0.3161365038415219 0.02402310114442473
-0.9258376649818176 -0.3771931227703703 0.02345135893188492
-0.9007671153956371 -0.4337026851904922 0.02281632486575985
-0.8739430633236571 -0.4855239240686984 0.02213687478834274
-0.8460385027094349 -0.5326909091133482 0.02143005555690273
-0.8176310118060806 -0.5753699712709459 0.02071049716051592
-0.7891944857964941 -0.6138179333972733 0.01999020330831042
-0.7611017535689514 -0.6483459382254033 0.0192786177120835
-0.7336339709480403 -0.6792907138407782 0.01858286201573405
-0.7069933880228444 -0.7069933880228447 0.01790805919018073
-0.6813170477615169 -0.7317849772253332 0.01725768051765457
0 0 0
0 0 0
0 0 0
0 0 0
0 0 0
0 0 0
0 0 0
0 0 0
0 0 0
-0.6276599061685979 0.7782982836490615 0.01717043556092767
-0.6528354865188987 0.7572891643619226 0.01785914560256872
-0.6792907138407782 0.7336339709480404 0.01858286201573406
-0.7069745246938482 0.7069745246938482 0.01934018789502299
-0.7357819167298809 0.6769193633914904 0.02012825076756247
-0.7655369359896379 0.6430510262312958 0.02094223718885951
-0.7959734236656222 0.6049398019858728 0.02177486604599266
-0.826714998383276 0.5621661989006276 0.02261584094743735
-0.8572570972053866 0.514354258323232 0.02345135893188491
-0.8869555963451429 0.4612169100994742 0.02426379917336574
-0.9150282242810583 0.4026124186836657 0.02503176163880648
-0.9405758953352057 0.3386073223206741 0.02573065069521401
-0.9626300646225386 0.2695364180943107 0.02633397056458323
-0.9802280617012527 0.1960456123402503 0.02681538617178037
-0.9925107974511048 0.1191012956941324 0.02715139604055171
-0.9988278811909066 0.03995311524763614 0.027324207906056
-0.9988278811909066 -0.03995311524763637 0.02732420790605601
-0.9925107974511047 -0.1191012956941327 0.0271513960405517
-0.9802280617012524 -0.1960456123402505 0.02681538617178036
-0.9626300646225384 -0.2695364180943108 0.02633397056458323
-0.9405758953352056 -0.3386073223206743 0.02573065069521401
-0.9150282242810583 -0.4026124186836657 0.02503176163880648
-0.8869555963451426 -0.4612169100994744 0.02426379917336573
-0.8572570972053866 -0.514354258323232 0.02345135893188491
-0.826714998383276 -0.5621661989006278 0.02261584094743734
-0.795973423665622 -0.604939801985873 0.02177486604599265
-0.7655369359896379 -0.6430510262312958 0.02094223718885951
-0.7357819167298808 -0.6769193633914906 0.02012825076756246
-0.7069745246938482 -0.7069745246938482 0.01934018789502299
-0.6792907138407781 -0.7336339709480406 0.01858286201573405
-0.6528354865188987 -0.7572891643619226 0.01785914560256872
-0.6276599061685978 -0.7782982836490614 0.01717043556092766
0 0 0
0 0 0
0 0 0
0 0 0
0 0 0
0 0 0
0 0 0
0 0 0
-0.5957534245049683 0.802972006941479 0.01771477516020609
-0.621288663688869 0.7833639672598784 0.01847406751539609
-0.6483459382254033 0.7611017535689516 0.01927861771208351
-0.6769193633914904 0.7357819167298809 0.02012825076756247
-0.7069505314703753 0.7069505314703753 0.02102122992375927
-0.7383075115197504 0.67410685834412 0.02195363220367787
-0.7707592467163668 0.6367141603309117 0.02291858711441849
-0.8039463279571929 0.5942211989248817 0.02390540759789827
-0.8373509203135229 0.5460984262914279 0.02489869579158751
-0.8702713039392264 0.4918924761395627 0.02587758600040444
-0.9018098167651524 0.4313003471485511 0.02681538617178037
-0.9308859612663326 0.3642597239737823 0.02767996762641836
-0.956287035892702 0.291043880489083 0.02843527058788711
-0.9767641219879772 0.2123400265191253 0.02904415836123965
-0.9911696513239681 0.1292829979987783 0.02947250791451814
-0.9986156130598395 0.04341807013303636 0.0296939141751906
-0.9986156130598395 -0.0434180701330366 0.0296939141751906
-0.9911696513239681 -0.1292829979987785 0.02947250791451813
-0.9767641219879772 -0.2123400265191256 0.02904415836123965
-0.9562870358927019 -0.2910438804890833 0.02843527058788711
-0.9308859612663326 -0.3642597239737825 0.02767996762641836
-0.9018098167651524 -0.4313003471485511 0.02681538617178037
-0.8702713039392262 -0.4918924761395628 0.02587758600040444
-0.8373509203135229 -0.5460984262914279 0.02489869579158751
-0.8039463279571928 -0.5942211989248818 0.02390540759789826
-0.7707592467163665 -0.6367141603309119 0.02291858711441848
-0.7383075115197504 -0.67410685834412 0.02195363220367787
-0.7069505314703753 -0.7069505314703755 0.02102122992375927
-0.6769193633914903 -0.7357819167298809 0.02012825076756246
-0.648345938225403 -0.7611017535689516 0.0192786177120835
-0.621288663688869 -0.7833639672598784 0.01847406751539609
-0.5957534245049682 -0.802972006941479 0.01771477516020609
0 0 0
0 0 0
0 0 0
0 0 0
0 0 0
0 0 0
0 0 0
-0.5367934482625605 0.8435325615554523 0.01748174756958848
-0.5607546148331835 0.8277806218966042 0.01826209067328374
-0.5864028494633092 0.8097944111636175 0.01909737650782717
-0.6138179333972734 0.7891944857964942 0.01999020330831043
-0.6430510262312958 0.7655369359896379 0.02094223718885951
-0.67410685834412 0.7383075115197504 0.02195363220367787
-0.7069193647835608 0.7069193647835608 0.02302223681604123
-0.7413196408381491 0.6707177702821349 0.02414255030767744
-0.776995990569304 0.6289967542703889 0.02530442167966062
-0.8134478811103603 0.5810342007931145 0.02649155008246729
-0.8499393559388254 0.5261529346287966 0.02767996762641836
-0.8854631453827101 0.4638140285338005 0.02883687056885042
-0.9187335150140407 0.3937429350060174 0.02992038640780927
-0.9482308400572285 0.3160769466857426 0.03088102553642039
-0.9723183745679688 0.2315043748971352 0.03166548406372445
-0.9894354192311822 0.1413479170330259 0.03222293470867588
-0.998340051002923 0.04754000242871047 0.03251293177428382
-0.9983400510029231 -0.04754000242871075 0.03251293177428382
-0.9894354192311821 -0.1413479170330261 0.03222293470867587
-0.9723183745679685 -0.2315043748971354 0.03166548406372444
-0.9482308400572285 -0.3160769466857428 0.03088102553642039
-0.9187335150140405 -0.3937429350060176 0.02992038640780926
-0.8854631453827101 -0.4638140285338005 0.02883687056885042
-0.8499393559388254 -0.5261529346287969 0.02767996762641836
-0.8134478811103603 -0.5810342007931145 0.02649155008246729
-0.7769959905693039 -0.628996754270389 0.02530442167966062
-0.7413196408381491 -0.6707177702821352 0.02414255030767743
-0.7069193647835607 -0.7069193647835608 0.02302223681604122
-0.6741068583441198 -0.7383075115197505 0.02195363220367787
-0.6430510262312957 -0.7655369359896379 0.02094223718885951
-0.6138179333972732 -0.7891944857964943 0.01999020330831043
-0.5864028494633092 -0.8097944111636175 0.01909737650782717
-0.5607546148331833 -0.8277806218966042 0.01826209067328374
-0.5367934482625604 -0.8435325615554523 0.01748174756958847
0 0 0
0 0 0
0 0 0
0 0 0
0 0 0
-0.4770215286881344 0.8787238686360371 0.01717043556092766
-0.498883988500439 0.8664827168691834 0.01795737689341408
-0.5224696402483927 0.8524504656684303 0.01880634468447888
-0.5479196629950438 0.8362984329924353 0.01972242068800284
-0.5753699712709457 0.8176310118060807 0.02071049716051593
-0.6049398019858728 0.7959734236656222 0.02177486604599266
-0.6367141603309117 0.7707592467163668 0.02291858711441849
-0.6707177702821349 0.7413196408381491 0.02414255030767744
-0.7068778522303019 0.7068778522303019 0.02544413591677221
-0.7449733268929519 0.6665550819568518 0.02681538617178037
-0.7845697173691241 0.6193971452914138 0.0282406620350862
-0.8249433325276935 0.5644349117294746 0.0296939141751906
-0.8650066898302796 0.5007933467438461 0.03113599855408708
-0.9032600461455018 0.4278600218583957 0.03251293177428383
-0.9378083428004318 0.3455083368212115 0.03375650101755191
-0.9664891516461407 0.2543392504331947 0.03478886947579499
-0.9871392256536746 0.1558640882611064 0.03553217086525191
-0.9979733128750813 0.0525249112039515 0.03592214487126422
-0.9979733128750813 -0.05252491120395179 0.03592214487126422
-0.9871392256536746 -0.1558640882611066 0.03553217086525191
-0.9664891516461406 -0.2543392504331949 0.03478886947579499
-0.9378083428004318 -0.3455083368212118 0.03375650101755191
-0.9032600461455017 -0.4278600218583959 0.03251293177428382
-0.8650066898302796 -0.5007933467438461 0.03113599855408708
-0.8249433325276934 -0.5644349117294747 0.0296939141751906
-0.7845697173691241 -0.6193971452914138 0.0282406620350862
-0.7449733268929518 -0.6665550819568519 0.02681538617178037
-0.7068778522303015 -0.706877852230302 0.0254441359167722
-0.6707177702821349 -0.7413196408381493 0.02414255030767744
-0.6367141603309114 -0.7707592467163669 0.02291858711441848
-0.6049398019858728 -0.7959734236656222 0.02177486604599266
-0.5753699712709455 -0.8176310118060808 0.02071049716051592
-0.5479196629950438 -0.8362984329924353 0.01972242068800284
-0.5224696402483926 -0.8524504656684303 0.01880634468447888
-0.4988839885004388 -0.8664827168691835 0.01795737689341407
-0.4770215286881344 -0.8787238686360371 0.01717043556092766
0 0 0
0 0 0
0 0 0
0 0 0
-0.4368364907706229 0.8993692457042238 0.01757385025038022
-0.4578788883492864 0.8888237244427324 0.01842038196595196
-0.4807426767918168 0.8766484106203718 0.01934018789502299
-0.5056148687234593 0.8625194819400189 0.02034079152049923
-0.5326909091133482 0.8460385027094351 0.02143005555690273
-0.5621661989006276 0.826714998383276 0.02261584094743735
-0.5942211989248817 0.8039463279571929 0.02390540759789827
-0.6289967542703889 0.776995990569304 0.02530442167966062
-0.6665550819568518 0.7449733268929519 0.02681538617178037
-0.706820852616345 0.706820852616345 0.02843527058788711
-0.7494969201683551 0.6613208119132545 0.03015212079678585
-0.7939525278562929 0.6071401683606946 0.0319405615722331
-0.8390916751372284 0.5429416721476185 0.03375650101755191
-0.8832298334796037 0.4675922647833196 0.03553217086525191
-0.9240389712894268 0.3804866352368225 0.03717391484010115
-0.9586517723742907 0.2819564036394971 0.03856638134842452
-0.9840116295188003 0.1736491110915528 0.03958660365412622
-0.9974703087606203 0.05867472404474219 0.04012804380063596
-0.9974703087606203 -0.05867472404474253 0.04012804380063596
-0.9840116295188003 -0.1736491110915531 0.03958660365412622
-0.9586517723742907 -0.2819564036394974 0.03856638134842452
-0.9240389712894266 -0.3804866352368229 0.03717391484010115
-0.8832298334796035 -0.4675922647833198 0.0355321708652519
-0.8390916751372284 -0.5429416721476185 0.03375650101755191
-0.7939525278562928 -0.6071401683606948 0.0319405615722331
-0.7494969201683551 -0.6613208119132545 0.03015212079678585
-0.7068208526163449 -0.706820852616345 0.0284352705878871
-0.6665550819568514 -0.744973326892952 0.02681538617178036
-0.6289967542703888 -0.776995990569304 0.02530442167966062
-0.5942211989248816 -0.8039463279571931 0.02390540759789826
-0.5621661989006276 -0.826714998383276 0.02261584094743735
-0.5326909091133478 -0.8460385027094351 0.02143005555690272
-0.5056148687234593 -0.8625194819400189 0.02034079152049923
-0.4807426767918167 -0.8766484106203718 0.01934018789502299
-0.4578788883492863 -0.8888237244427324 0.01842038196595195
-0.4368364907706229 -0.8993692457042238 0.01757385025038022
0 0 0
0 0 0
0 0 0
-0.3756499991605879 0.9266033312627836 0.01712730636623041
-0.3938557803950833 0.9189968209218612 0.01795737689341408
-0.4137293157664353 0.9102044946861578 0.01886348664889354
-0.4354750663686416 0.8999818038285261 0.01985495778841139
-0.4593221615937827 0.8880228457479801 0.02094223718885951
-0.4855239240686984 0.8739430633236571 0.02213687478834274
-0.514354258323232 0.8572570972053866 0.02345135893188491
-0.5460984262914279 0.8373509203135229 0.02489869579158751
-0.5810342007931145 0.8134478811103603 0.02649155008246729
-0.6193971452914138 0.7845697173691241 0.0282406620350862
-0.6613208119132545 0.7494969201683551 0.03015212079678585
-0.7067395851651301 0.7067395851651301 0.03222293470867588
-0.7552409318260811 0.654542140915937 0.03443429481860027
-0.8058604920253579 0.5909643608185958 0.03674223230720448
-0.8568383265188549 0.5141029959113131 0.03906650487797017
-0.9054106840823188 0.4225249859050819 0.04128110264391852
-0.9477970888738747 0.315932362957958 0.04321365939155659
-0.9796021305260193 0.1959204261052037 0.04466377171309058
-0.996754252018302 0.0664502834678866 0.04544580190152549
-0.996754252018302 -0.06645028346788698 0.04544580190152549
-0.9796021305260193 -0.195920426105204 0.04466377171309058
-0.9477970888738747 -0.3159323629579583 0.04321365939155659
-0.9054106840823187 -0.4225249859050822 0.04128110264391851
-0.8568383265188547 -0.5141029959113134 0.03906650487797016
-0.8058604920253579 -0.5909643608185958 0.03674223230720448
-0.755240931826081 -0.6545421409159371 0.03443429481860027
-0.7067395851651301 -0.7067395851651301 0.03222293470867588
-0.6613208119132544 -0.7494969201683552 0.03015212079678585
-0.6193971452914135 -0.7845697173691242 0.02824066203508618
-0.5810342007931144 -0.8134478811103604 0.02649155008246729
-0.5460984262914279 -0.837350920313523 0.02489869579158751
-0.514354258323232 -0.8572570972053868 0.02345135893188491
-0.4855239240686984 -0.8739430633236573 0.02213687478834274
-0.4593221615937827 -0.8880228457479801 0.02094223718885951
-0.4354750663686416 -0.8999818038285261 0.01985495778841138
-0.4137293157664352 -0.910204494686158 0.01886348664889354
-0.3938557803950833 -0.9189968209218612 0.01795737689341407
-0.3756499991605878 -0.9266033312627836 0.01712730636623041
0 0 0
0 0 0
-0.3314356016106858 0.9433167122765673 0.01743623596682714
-0.3481281308215324 0.9372680445195104 0.01831440016158785
-0.3664563998665322 0.9302354765842741 0.0192786177120835
-0.3866466643179394 0.9220035841427787 0.02034079152049922
-0.4089612205819355 0.9122981074520101 0.02151472053302306
-0.433702685190492 0.9007671153956371 0.02281632486575985
-0.4612169100994742 0.8869555963451429 0.02426379917336574
-0.4918924761395627 0.8702713039392264 0.02587758600040444
-0.5261529346287966 0.8499393559388254 0.02767996762641836
-0.5644349117294746 0.8249433325276935 0.0296939141751906
-0.6071401683606946 0.7939525278562929 0.0319405615722331
-0.654542140915937 0.7552409318260811 0.03443429481860027
-0.7066180368683851 0.7066180368683851 0.03717391484010115
-0.7627714125816508 0.6454219644921662 0.04012804380063596
-0.8214241436906914 0.5686782533243249 0.04321365939155659
-0.8795280725027935 0.4735920390399655 0.04627040347228929
-0.9322225016428644 0.3585471160164859 0.04904256342178911
-0.9731135149329082 0.2245646572922093 0.0511937667119093
-0.995685689276841 0.07659120686744907 0.05238124855222009
-0.995685689276841 -0.07659120686744951 0.05238124855222009
-0.9731135149329081 -0.2245646572922097 0.05119376671190929
-0.9322225016428642 -0.3585471160164864 0.0490425634217891
-0.8795280725027934 -0.4735920390399658 0.04627040347228927
-0.8214241436906911 -0.5686782533243251 0.04321365939155657
-0.7627714125816508 -0.6454219644921662 0.04012804380063596
-0.7066180368683849 -0.7066180368683852 0.03717391484010114
-0.654542140915937 -0.7552409318260811 0.03443429481860027
-0.6071401683606945 -0.793952527856293 0.0319405615722331
-0.5644349117294744 -0.8249433325276936 0.02969391417519059
-0.5261529346287966 -0.8499393559388255 0.02767996762641836
-0.4918924761395624 -0.8702713039392264 0.02587758600040443
-0.4612169100994742 -0.8869555963451429 0.02426379917336573
-0.4337026851904918 -0.9007671153956371 0.02281632486575984
-0.4089612205819355 -0.9122981074520101 0.02151472053302306
-0.3866466643179394 -0.9220035841427787 0.02034079152049922
-0.3664563998665321 -0.9302354765842742 0.0192786177120835
-0.3481281308215324 -0.9372680445195105 0.01831440016158785
-0.3314356016106857 -0.9433167122765673 0.01743623596682714
0 0 0
0 0 0
-0.2849255508502023 0.958385943768862 0.01771477516020609
-0.2997745161621502 0.953828005970478 0.01863798503407645
-0.3161666644123949 0.9484999932371846 0.01965713975635166
-0.3343375890088003 0.9422241144793464 0.02078688695774468
-0.3545680483406079 0.9347703092616028 0.02204468232703075
-0.3771931227703703 0.9258376649818176 0.02345135893188492
-0.4026124186836657 0.9150282242810583 0.02503176163880648
-0.431300347148551 0.9018098167651523 0.02681538617178036
-0.4638140285338005 0.8854631453827099 0.02883687056885041
-0.5007933467438461 0.8650066898302796 0.03113599855408708
-0.5429416721476185 0.8390916751372284 0.03375650101755191
-0.5909643608185958 0.8058604920253579 0.03674223230720448
-0.6454219644921662 0.7627714125816508 0.04012804380063596
-0.7064244353865727 0.7064244353865727 0.04392077159527157
-0.7730628079501953 0.6325059337774325 0.04806390226040189
-0.8425032755419426 0.5361384480721448 0.0523812485522201
-0.9089117376812259 0.4131416989460115 0.05651008491674451
-0.9630329229811901 0.2626453426312333 0.05987498015387532
-0.9939896303965317 0.09036269367241168 0.06179966226794579
-0.9939896303965317 -0.0903626936724122 0.06179966226794579
-0.96303292298119 -0.2626453426312338 0.05987498015387531
-0.9089117376812258 -0.4131416989460118 0.05651008491674449
-0.8425032755419424 -0.5361384480721452 0.05238124855222009
-0.7730628079501951 -0.6325059337774328 0.04806390226040189
-0.7064244353865727 -0.7064244353865727 0.04392077159527157
-0.645421964492166 -0.762771412581651 0.04012804380063595
-0.5909643608185958 -0.8058604920253579 0.03674223230720448
-0.5429416721476183 -0.8390916751372286 0.03375650101755191
-0.500793346743846 -0.8650066898302797 0.03113599855408707
-0.4638140285338005 -0.8854631453827101 0.02883687056885041
-0.431300347148551 -0.9018098167651524 0.02681538617178036
-0.4026124186836657 -0.9150282242810583 0.02503176163880647
-0.3771931227703701 -0.9258376649818176 0.02345135893188491
-0.3545680483406079 -0.9347703092616028 0.02204468232703075
-0.3343375890088003 -0.9422241144793464 0.02078688695774468
-0.3161666644123948 -0.9484999932371847 0.01965713975635166
-0.2997745161621502 -0.953828005970478 0.01863798503407645
-0.2849255508502022 -0.958385943768862 0.01771477516020608
0 0 0
0 0 0
-0.23631346823705 0.9715109249745389 0.01795737689341408
-0.2489964562263193 0.9683195519912416 0.0189211526661495
-0.2630648285988315 0.9645710381957152 0.01999020330831043
-0.278747640354399 0.9601307612207075 0.02118193462834121
-0.2963240621358785 0.9548219779933864 0.02251756070468076
-0.3161365038415218 0.9484095115245651 0.02402310114442473
-0.3386073223206741 0.9405758953352057 0.02573065069521401
-0.3642597239737824 0.9308859612663327 0.02767996762641836
-0.3937429350060174 0.9187335150140407 0.02992038640780927
-0.4278600218583957 0.9032600461455018 0.03251293177428383
-0.4675922647833196 0.8832298334796037 0.03553217086525191
-0.5141029959113131 0.8568383265188549 0.03906650487797017
-0.5686782533243249 0.8214241436906914 0.04321365939155659
-0.6325059337774326 0.7730628079501954 0.0480639022604019
-0.7060882022880079 0.7060882022880079 0.05365539282661598
-0.7879360278937012 0.6128391328062117 0.05987498015387534
-0.8722350112630198 0.4845750062572328 0.06628083009288935
-0.946227719287993 0.3154092397626639 0.07190350981267549
-0.991061243924397 0.1101179159915993 0.07531039349714019
-0.9910612439243969 -0.1101179159915999 0.07531039349714017
-0.9462277192879928 -0.3154092397626645 0.07190350981267549
-0.8722350112630197 -0.4845750062572333 0.06628083009288935
-0.7879360278937009 -0.6128391328062119 0.05987498015387531
-0.7060882022880077 -0.7060882022880082 0.05365539282661596
-0.6325059337774326 -0.7730628079501954 0.0480639022604019
-0.5686782533243246 -0.8214241436906915 0.04321365939155657
-0.5141029959113131 -0.8568383265188549 0.03906650487797017
-0.4675922647833194 -0.8832298334796037 0.03553217086525189
-0.4278600218583954 -0.9032600461455019 0.03251293177428381
-0.3937429350060174 -0.9187335150140407 0.02992038640780926
-0.3642597239737822 -0.9308859612663327 0.02767996762641835
-0.338607322320674 -0.9405758953352057 0.02573065069521401
-0.3161365038415216 -0.9484095115245651 0.02402310114442472
-0.2963240621358785 -0.9548219779933864 0.02251756070468076
-0.278747640354399 -0.9601307612207075 0.02118193462834121
-0.2630648285988313 -0.9645710381957152 0.01999020330831043
-0.2489964562263192 -0.9683195519912416 0.0189211526661495
-0.23631346823705 -0.9715109249745392 0.01795737689341407
0 0 0
-0.1766377531233561 0.9841246245444134 0.01725768051765457
-0.1858610174229257 0.982408234949751 0.01815880242278151
-0.1960801446112165 0.9804007230560833 0.01915722110206373
-0.2074615784202611 0.9780331554098031 0.02026919827022978
-0.2202098880056574 0.9752152183107694 0.02151472053302306
-0.2345789011745462 0.9718268762945493 0.02291858711441849
-0.2508867543734436 0.9677060525832829 0.02451188025509175
-0.2695364180943106 0.9626300646225384 0.02633397056458323