# OOMMF: rectangular mesh v1.0
# Segment count: 1
# Begin: Segment
# Begin: Header
# Title: 
# meshunit: m
# valueunit: (none)
# valuemultiplier: 1
# xmin: 0
# ymin: 0
# zmin: 0
# xmax: 9.357999999999999e-08
# ymax: 9.357999999999999e-08
# zmax: 2.3395e-08
# ValueRangeMaxMag: 1
# ValueRangeMinMag: 0
# meshtype: rectangular
# xbase: 1.16975e-09
# ybase: 1.16975e-09
# zbase: 1.16975e-09
# xstepsize: 2.3395e-09
# ystepsize: 2.3395e-09
# zstepsize: 2.3395e-09
# xnodes: 40
# ynodes: 40
# znodes: 10
# End: Header
# Begin: Data Text
0 0 0
0 0 0
0 0 0
0 0 0
0 0 0
0 0 0
0 0 0
0 0 0
0 0 0
0 0 0
0 0 0
0 0 0
0 0 0
0 0 0
0 0 0
0 0 0
-0.9866654937789667 0.1622150904446182 0.01332170476896701
-0.9912864321675666 0.1309444566954493 0.01430939066590334
-0.9959479391748586 0.08868430458659864 0.01492637174074652
-0.9989955390421562 0.04216578737496256 0.01516441060248169
-0.9998690967310482 -0.005549500100352677 0.01519843580351594
-0.9985204303031668 -0.05219141272612278 0.01526455714488936
-0.9953894845418552 -0.09463268924306337 0.01563419937589039
-0.9918933113891925 -0.1260004274371471 0.01647880781604605
0 0 0
0 0 0
0 0 0
0 0 0
0 0 0
0 0 0
0 0 0
0 0 0
0 0 0
0 0 0
0 0 0
0 0 0
0 0 0
0 0 0
0 0 0
0 0 0
0 0 0
0 0 0
0 0 0
0 0 0
0 0 0
0 0 0
0 0 0
0 0 0
0 0 0
0 0 0
0 0 0
0 0 0
-0.9278225575577549 0.3727013858296486 0.01545893552755755
-0.9391017961036848 0.3432361333863993 0.01663650482482973
-0.9531728208407522 0.3019443333440464 0.01706438313864052
-0.9673181907618047 0.253022487261032 0.01658730724225207
-0.981043226337722 0.1931511835748825 0.01571013496105759
-0.9894640363107002 0.1438744069490226 0.01615784245510262
-0.995357334782032 0.09479271327718411 0.01667685837197479
-0.9988604777738388 0.04461090281614095 0.01695916540831906
-0.9998363952481787 -0.006107255443732906 0.01702598508375484
-0.9982579404462147 -0.05649799946990015 0.01700177614192401
-0.9942239438889213 -0.1059701387561488 0.01700232601619698
-0.9876455316302702 -0.1557882772107087 0.01692089047537108
-0.9761905882531584 -0.2163313239904364 0.01589634129279139
-0.9638108634277955 -0.2662016993606625 0.01432741414428981
-0.9511426992269258 -0.3084583010354894 0.01345519340688088
-0.9408320555029864 -0.3385948403042032 0.01373235076001432
0 0 0
0 0 0
0 0 0
0 0 0
0 0 0
0 0 0
0 0 0
0 0 0
0 0 0
0 0 0
0 0 0
0 0 0
0 0 0
0 0 0
0 0 0
0 0 0
0 0 0
0 0 0
0 0 0
0 0 0
0 0 0
0 0 0
-0.878505657737489 0.4775151561630003 0.0143904467563265
-0.8935832752078665 0.4486323806065619 0.01542456936418685
-0.915436588173639 0.4021333715619304 0.01626666865837371
-0.9329076613613084 0.3596867879341491 0.01757014396606415
-0.9492113039041998 0.3140925034992709 0.01854183879901431
-0.9642645185414908 0.2642560427397083 0.01904421585405934
-0.9775227226397526 0.2099360113093856 0.01939582115998586
-0.9874966653816741 0.1563609209501009 0.02003991665924458
-0.9945093892825729 0.1025911441336613 0.02064295943293421
-0.9986139829952522 0.04826609587596238 0.0209880193265136
-0.9997583415898422 -0.006412848564928821 0.02102697778595422
-0.9979170526118621 -0.06106674402517964 0.02079444350341435
-0.9931019909449074 -0.115479805667088 0.02031871217257473
-0.9852527529614165 -0.1699883258085321 0.01951875689591451
-0.9740766818640667 -0.2254851174442314 0.0181955945176435
-0.9608193199613051 -0.2766762692161405 0.01662758075405269
-0.9460372333118547 -0.3236898569350767 0.01544116915911608
-0.9298957822253535 -0.3675212388704862 0.01489876433133423
-0.9095610714251424 -0.4153137777332578 0.01459874559257282
-0.8953892491970502 -0.4450408081315219 0.01472316270316648
0 0 0
0 0 0
0 0 0
0 0 0
0 0 0
0 0 0
0 0 0
0 0 0
0 0 0
0 0 0
0 0 0
0 0 0
0 0 0
0 0 0
0 0 0
0 0 0
0 0 0
0 0 0
0 0 0
-0.84107031118617 0.5407250374928038 0.01473653519672685
-0.8623481258368053 0.5060800405000432 0.01544999913344671
-0.8831412732848244 0.4688014611556443 0.01693166971067455
-0.9047859535423057 0.4254585446671796 0.01863880474240488
-0.9247726265522358 0.3799656580262856 0.02053504079202591
-0.9431701554334224 0.3315605422078987 0.02230840089511753
-0.9597449312718935 0.2798611020236923 0.02382079914680777
-0.9740288181525323 0.225025281349945 0.02512934861390064
-0.9853323817345835 0.1686070058787512 0.02630161732395073
-0.9934433492919851 0.1110437003788989 0.02719574146228738
-0.9982300575727151 0.05264102058103039 0.02767083501740987
-0.9995980201502038 -0.006210522072388182 0.02766274620099752
-0.9975107371589843 -0.06507050856665599 0.02716906636996921
-0.9919948404749978 -0.123528703185028 0.02620870009001447
-0.9831268199605093 -0.1812375962491723 0.02479091729158062
-0.9710700068863944 -0.2376891650263638 0.02295435807700325
-0.9564227993500956 -0.2912345439871044 0.02092532608944548
-0.9396465681483793 -0.3416159386380273 0.01904934212596847
-0.9210213376770672 -0.3891176466880537 0.01752576901297362
-0.9005802702332533 -0.4343819997070534 0.01635405751185864
-0.8807578306127016 -0.4733078328326957 0.01566330723773876
-0.8605383858287804 -0.5091520811964581 0.01542221542164847
0 0 0
0 0 0
0 0 0
0 0 0
0 0 0
0 0 0
0 0 0
0 0 0
0 0 0
0 0 0
0 0 0
0 0 0
0 0 0
0 0 0
0 0 0
0 0 0
-0.7673280921865718 0.6410622714979972 0.01570869196156504
-0.7878344993538541 0.6156685874859353 0.01640097591409594
-0.8190209233973711 0.5735233075644791 0.01660550263066794
-0.844920723784143 0.5345875546843214 0.01803099821743565
-0.8691603555743159 0.4941149078847364 0.02026657603016789
-0.8927072435308725 0.4500532244463004 0.02293191036522956
-0.914937445230291 0.4027701202735924 0.02580119241941808
-0.9354997869883241 0.3521649527192187 0.02863554820620779
-0.9539919493215788 0.298198229246348 0.03125982571858403
-0.9699188795863981 0.2411020492128095 0.03357333595652487
-0.9827364344248412 0.1815764926862835 0.03548348570387996
-0.9920624060329614 0.1202256567253551 0.03685069878643329
-0.9976312895863505 0.05763674911090386 0.03754750577870213
-0.9992810077649587 -0.005571014470464332 0.03750241749565202
-0.9969582159632155 -0.06875288104805523 0.0367063614518522
-0.9907228019899146 -0.1312603130059796 0.0352002819139871
-0.98075016502906 -0.1924467197726294 0.03306620395851316
-0.9673473599980893 -0.2516194389584007 0.03044245461500316
-0.950997239037754 -0.3079692200552229 0.02755378088658596
-0.9321813011157148 -0.3611504180678162 0.02466571263219252
-0.911330553700906 -0.4110881062661624 0.02198160089028624
-0.8888591250783222 -0.4577607264982201 0.01961053392493136
-0.8654572429061342 -0.5006732361196899 0.0176088425158871
-0.8403580047232785 -0.5417997737009015 0.01585651648886661
-0.8102589805143018 -0.585906387306003 0.01393161189352412
-0.7903113092857728 -0.6125654714845729 0.01309876176933332
0 0 0
0 0 0
0 0 0
0 0 0
0 0 0
0 0 0
0 0 0
0 0 0
0 0 0
0 0 0
0 0 0
0 0 0
0 0 0
-0.7202428426615916 0.6935672457618726 0.01465343649250206
-0.7454032077957327 0.6664266794950966 0.01579679286979661
-0.7709085369329484 0.6367080898447642 0.01740218406212528
-0.799044875044009 0.6009608166805491 0.01932315917625362
-0.8263327443004352 0.5627509860290103 0.02203459598648773
-0.85284035297095 0.5215496365171778 0.02548154220577764
-0.8785962480130981 0.4766574622532473 0.02943291789137246
-0.9031816159413156 0.4279382193662542 0.03364296406788266
-0.9261165044080243 0.3753332609911951 0.03785714538600068
-0.9468654487889178 0.3188973178394439 0.04183685653307932
-0.9648417150318399 0.258886544471902 0.04536763191764499
-0.9794518963916714 0.1958221091305964 0.04824607994856095
-0.9901911016807055 0.1303603547109138 0.05027683434739144
-0.9966776477485756 0.06325852268085091 0.05130327266951253
-0.9986756578954328 -0.004650477891423779 0.05123771445434781
-0.9961110473456767 -0.07249374501159578 0.05007432765491919
-0.9890777906398105 -0.1393984980916701 0.04788718819118056
-0.9778335200695372 -0.204530051333792 0.04482259619671756
-0.962785893227501 -0.2671230728543612 0.04109242936315823
-0.9444648925208801 -0.3265269679083814 0.03696222428481449
-0.923438563698231 -0.3823494520656225 0.03271262111274426
-0.9002663860477085 -0.43439989776724 0.02858606255519484
-0.8754891012478129 -0.4826032017153793 0.02475849935600564
-0.8496167265655776 -0.5269688115193114 0.02133751686388293
-0.8227621959521245 -0.5680892665282421 0.01835631137895377
-0.7950030036964164 -0.606397585383963 0.0158805715947036
-0.7697627573858798 -0.638167660093551 0.01439913026569274
-0.7451097779194299 -0.6667942361894185 0.01403087429306012
0 0 0
0 0 0
0 0 0
0 0 0
0 0 0
0 0 0
0 0 0
0 0 0
0 0 0
0 0 0
0 0 0
-0.6667942407913926 0.7451097736663514 0.01403088145157962
-0.6936996143732514 0.7201055359331557 0.01512819013710059
-0.7205111467270733 0.6932316985259931 0.01713183004830893
-0.747981541807231 0.6634210067450446 0.0199042941364046
-0.7765601600601313 0.6296086387234221 0.02339401317051296
-0.8053094473168987 0.592207212797462 0.0277003821780889
-0.8338846957298152 0.5509648780283851 0.03277220478941724
-0.8619780622696358 0.5054871876662219 0.03842555492347308
-0.8891067384073409 0.4555407977133817 0.04440483461646512
-0.9146800078459677 0.401022731473176 0.05041083304898654
-0.9380276499046775 0.3419859782638475 0.0561223545944636
-0.9584272168137433 0.2786938455578801 0.0612128296913461
-0.9751550242939903 0.2116603407838835 0.06536496564243649
-0.9875618779047126 0.141624497000217 0.06829377100989967
-0.9951374594427024 0.06951271171249022 0.06978122759238062
-0.9975608501693304 -0.003615218529069356 0.06970853896352477
-0.9947325959889459 -0.07663531101337276 0.0680741623743982
-0.986783945720946 -0.1484357201096677 0.06499447255671072
-0.9740619066149143 -0.2179911420642867 0.060689900833874
-0.9570921319415411 -0.2844270550073035 0.05546080918511079
-0.9365232355376566 -0.3470715403706788 0.04965455832854162
-0.9130553896843797 -0.405495793496493 0.04362358106522502
-0.8873861139727247 -0.4594842763794919 0.03768400839083794
-0.8601760097111059 -0.5089866757578754 0.03209043811521633
-0.8320129706338887 -0.5540971970786157 0.02703170151124215
-0.8033399277090656 -0.5950899514858752 0.02264752059125457
-0.7746420726745231 -0.6321118496465004 0.01908582665221708
-0.7469727778174702 -0.6646483608017706 0.01655976096358925
-0.7201055383905529 -0.6936996119771014 0.01512818303930429
-0.6935672465539129 -0.7202428420272122 0.01465343018503995
0 0 0
0 0 0
0 0 0
0 0 0
0 0 0
0 0 0
0 0 0
0 0 0
0 0 0
-0.6125654746715881 0.790311306669148 0.01309877060167199
-0.6381676632952791 0.769762754580652 0.0143991383301134
-0.66464836249491 0.7469727761568806 0.01655976791253495
-0.6922098746842985 0.7214267524769469 0.01972131334656612
-0.7208802241722585 0.6926475000088159 0.02389860098188547
-0.7506119588759584 0.66010278720057 0.02908603655424776
-0.7810028751210935 0.6235301589993842 0.03527959567211154
-0.8116913993060849 0.5825461977102732 0.04239103473415672
-0.8422595069815291 0.5367274740566363 0.05022490907920038
-0.8721462405479617 0.4857363771990083 0.05849022964255621
-0.9006515438916622 0.4293743008026164 0.06681696113883824
-0.9269589064259283 0.3676353103646817 0.07477609491482451
-0.9501739845702367 0.3007671709951187 0.08190548148635685
-0.9693883444295586 0.229318856791961 0.08774451324012851
-0.9837666022586951 0.1541473069536231 0.09187970417522839
-0.9926379951080718 0.07638358454489295 0.09399658866097334
-0.9955757379409834 -0.002641419930309363 0.0939253582586604
-0.9924486571454013 -0.08150298991246278 0.09166747277861584
-0.9834345232012902 -0.1588030363553635 0.0873964199505199
-0.9689927869665705 -0.233284388193562 0.08143324279379698
-0.9498033634073209 -0.3039201524745966 0.074203179042128
-0.926684863630184 -0.3699663234540707 0.06618219570688672
-0.9005087743114205 -0.430973514108304 0.05784269638668357
-0.8721293950792477 -0.4867538402576309 0.04960864071060096
-0.8423345304544512 -0.53732941111554 0.04182873120602267
-0.8118108512245854 -0.5828843456915462 0.03477040957123612
-0.7811278586199201 -0.6237142222176779 0.02863280446017689
-0.750809676266283 -0.6600978141376449 0.02357341289720352
-0.7214267532793389 -0.6922098740263339 0.01972130708849093
-0.6932317000683373 -0.7205111453886427 0.01713182392825524
-0.666426679259711 -0.7454032081176933 0.01579678760775574
-0.6410622715453891 -0.7673280922304132 0.01570868788599929
0 0 0
0 0 0
0 0 0
0 0 0
0 0 0
0 0 0
0 0 0
0 0 0
-0.5859063920033228 0.8102589769750609 0.01393162018487687
-0.6063975899117195 0.7950030000881965 0.0158805793352869
-0.6321118524345212 0.7746420702216106 0.01908583387161039
-0.6600978159570153 0.7508096744773628 0.02357341892840758
-0.6896920981206678 0.7235063982499634 0.02938199246606858
-0.720659144298584 0.6923269524510874 0.03652107129619768
-0.7527262957665605 0.6567966988415663 0.04495798096414453
-0.7855603329510089 0.6163735175178425 0.05457701161277826
-0.8187097293385805 0.570499534683058 0.06515105534649322
-0.8515523166761961 0.5186831550217812 0.07633109890505919
-0.8832814096458073 0.4605775021026793 0.08764882161770025
-0.9129206994332225 0.3960644513573614 0.09853297375674512
-0.9393691209224081 0.3253419937359763 0.1083431666943601
-0.961481407072549 0.2489958587436925 0.1164240790484592
-0.9781813974179312 0.1680286383909589 0.1221782731339051
-0.9885904346937066 0.08382795258222242 0.1251472204964229
-0.9921444825095163 -0.001932422759737169 0.1250823391538594
-0.9886720438968044 -0.08744611269487795 0.1219867492454379
-0.9784131785819544 -0.1709526606136777 0.1161156311883151
-0.9619758296810736 -0.2509033614863665 0.1079351949284893
-0.9402428410956278 -0.3260816235385788 0.0980518972731577
-0.9142545051141018 -0.3956603258430677 0.08712982515950383
-0.8850934837124664 -0.4591968624527013 0.07581402642865036
-0.8537928612498247 -0.5165802561804519 0.06467293872537271
-0.8212746993733259 -0.5679558866494778 0.05416621631107619
-0.7883173896281218 -0.6136474667788712 0.04463720114184696
-0.7555530272261581 -0.6540796352035594 0.03632428748601448
-0.7235063985549202 -0.6896920979951906 0.02938198790213625
-0.6926474992503338 -0.7208802250473367 0.02389859656882845
-0.6634210067607931 -0.747981541911277 0.01990428970156602
-0.6367080882473994 -0.7709085383342794 0.01740218042792249
-0.6156685861439805 -0.7878345004604919 0.01640097313085613
0 0 0
0 0 0
0 0 0
0 0 0
0 0 0
0 0 0
0 0 0
-0.5091520831540658 0.8605383845005324 0.01542222490721029
-0.5417997773234817 0.8403580022281594 0.01585652494471089
-0.5680892698150688 0.8227621935066017 0.01835631927121031
-0.5950899530328456 0.8033399263626042 0.02264752770371955
-0.6237142230065285 0.7811278577733763 0.02863281037093735
-0.6540796340744779 0.7555530279694217 0.0363242923569742
-0.686150845527203 0.7260199543858915 0.04573885673923375
-0.7197788980551425 0.6918721469244005 0.05684426290088738
-0.754689434454581 0.6523892412902651 0.06951356249924334
-0.7904387914916858 0.6068249240202622 0.08348669650289135
-0.8263661524951758 0.5544795904553339 0.09834310234482443
-0.8615657729906318 0.494797508055341 0.1134894040572924
-0.8948904401775493 0.4274854363390395 0.1281690360299729
-0.924997719277498 0.3526418841982341 0.141502370441438
-0.9504490466240761 0.2708709122107276 0.1525632940438577
-0.9698600403980036 0.1833430735586862 0.1604893124704466
-0.9820807980400814 0.09176824336090046 0.1646083097277014
-0.9863668356933509 -0.001736193487862257 0.1645522746012903
-0.9824949331157793 -0.09486612325064414 0.1603250606150307
-0.9707902382855593 -0.1853922547056823 0.1523024134562868
-0.9520584847976048 -0.2713988204060584 0.1411641661580175
-0.9274470153817015 -0.3514459704226918 0.1277801374753759
-0.8982761804171815 -0.4246319649000971 0.1130822624473057
-0.8658823321117294 -0.4905639816656562 0.09795288065743694
-0.8314995062535688 -0.5492677736723792 0.0831473625863062
-0.7961882494110014 -0.6010723088205046 0.06925569340518127
-0.7608072703686367 -0.6464964841281695 0.05669738410314228
-0.7260199518223854 -0.6861508484600631 0.04573885343289796
-0.6923269509151264 -0.7206591459622048 0.0365210675855643
-0.6601027847222499 -0.7506119611903365 0.02908603307306207
-0.6296086368032706 -0.7765601617120969 0.02339401001129287
-0.6009608129998184 -0.7990448778728079 0.01932315667344288
-0.5735233031271596 -0.8190209265318095 0.01660550128986844
-0.5407250303949274 -0.8410703157498688 0.0147365351701195
0 0 0
0 0 0
0 0 0
0 0 0
0 0 0
-0.4450408127830414 0.8953892467453766 0.01472317119904276
-0.4733078371581013 0.8807578281411298 0.01566331551236655
-0.5006732419524186 0.8654572393824083 0.01760884986122519
-0.526968816592044 0.8496167232502403 0.02133752359353304
-0.5540972002499345 0.8320129683161177 0.02703170784442653
-0.5828843476664857 0.8118108495920024 0.0347704145808772
-0.6136474668174864 0.7883173893996179 0.04463720464649003
-0.6464964817897887 0.7608072722378252 0.05669738568456912
-0.6813973371944454 0.7284665063577475 0.07095222321574407
-0.7181572683165192 0.6903846646388825 0.08728775856678
-0.7563751667129347 0.6455870470227615 0.1054228243617591
-0.7953813768460249 0.5931086962143894 0.1248620832814683
-0.8341888317961202 0.5321123193071566 0.1448636343192525
-0.8714768376571537 0.4620487760255702 0.1644355496854584
-0.905630878762176 0.3828455623427413 0.1823786907150027
-0.9348588933092239 0.2950867305753519 0.1973896426842153
-0.9573881894359103 0.2001271230091921 0.2082234121435262
-0.9717173154845543 0.1000796941764004 0.2138913593417203
-0.9768647083284207 -0.00235947336852701 0.2138452115616628
-0.9725405558241991 -0.1042297592426675 0.2080889823257664
-0.9591855857653344 -0.2026907064476391 0.1971788263981932
-0.9378668186622529 -0.2953667378090531 0.1821107373231536
-0.9100709633510391 -0.3805656593622213 0.1641359819768623
-0.8774636664602873 -0.4573392890014343 0.1445624044408917
-0.8416774791144099 -0.5254104007436889 0.1245910588363693
-0.804164542103966 -0.5850209868334827 0.1052132795187775
-0.7661204084010107 -0.6367582606613943 0.08716901577363217
-0.7284665031376903 -0.6813973406557334 0.07095222303521857
-0.6918721434228388 -0.7197789015818504 0.05684426086344421
-0.6567966962492074 -0.7527262981575776 0.04495797880371764
-0.6235301553294047 -0.7810028781505167 0.03527959347125659
-0.5922072093658558 -0.8053094499092368 0.02770038017766885
-0.5627509810053399 -0.8263327477430358 0.02203459518510725
-0.5345875477726706 -0.8449207281482348 0.01803099863730566
-0.5060800301228081 -0.8623481318942632 0.01545000095053355
-0.4775151428713622 -0.8785056649020643 0.0143904504281088
0 0 0
0 0 0
0 0 0
0 0 0
-0.4153137810748236 0.9095610697617365 0.01459875416665886
-0.4343820026087502 0.9005802686820047 0.01635406586325022
-0.4577607309548112 0.8888591226193888 0.01961054134914313
-0.4826032048809263 0.8754890993185902 0.02475850587135242
-0.5089866770060403 0.860176008748105 0.03209044413105441
-0.537329411068086 0.8423345302334256 0.0418287362665616
-0.5679558845009905 0.8212747006474088 0.05416621952108049
-0.6010723045412519 0.7961882525540931 0.06925569441084033
-0.6367582552546801 0.7661204129929211 0.08716901491109728
-0.6749273107276078 0.7299616377167184 0.1078384564797034
-0.7152594002384379 0.6864739333846863 0.1309867518259272
-0.757117291377651 0.6343663656341659 0.1560535845441176
-0.7994665845502155 0.5724341273334168 0.1821327813756821
-0.8408274612971597 0.4997685574690442 0.20794366855926
-0.8792952769398591 0.4160253822484946 0.2318678444205874
-0.9126675628906257 0.3217034689592223 0.2520809348342076
-0.9386949673524464 0.2183474781796731 0.2667885624230659
-0.9554284516343546 0.1085701107157062 0.2745341597447546
-0.9615785867079322 -0.00417700793840142 0.2744980404109615
-0.9567698695001219 -0.1160648670578519 0.2666840142407537
-0.94159650422916 -0.2234563301454777 0.2519192166972189
-0.9174634299641291 -0.3234056969214527 0.2316670237155139
-0.8862816459501888 -0.4139494898174073 0.2077273788688722
-0.8501286191060309 -0.4941491780002165 0.1819283398994857
-0.810968102613535 -0.5639407048936147 0.1558897620355339
-0.7704746938125744 -0.6238878930529269 0.130891722795595
-0.729961632124528 -0.674927316287786 0.1078384595339796
-0.6903846604868593 -0.7181572720526979 0.08728776066706496
-0.6523892369915929 -0.7546894381687923 0.06951356251839792
-0.6163735141046678 -0.7855603356918852 0.05457701070885812
-0.5825461931459109 -0.8116914026376385 0.04239103366691253
-0.5509648740364088 -0.8338846983929613 0.03277220413893021
-0.521549630789418 -0.8528403564607302 0.02548154264081294
-0.4941149000560781 -0.8691603599873178 0.0202665776412149
-0.4688014504511204 -0.883141278907284 0.01693167283324357
-0.4486323680819957 -0.8935832814111221 0.01542457427845248
0 0 0
0 0 0
0 0 0
-0.3385948424999066 0.9408320546103093 0.0137323577803281
-0.3675212436390532 0.9298957802159268 0.01489877211773254
-0.3891176519547491 0.9210213353051591 0.01752577672812028
-0.4110881131706726 0.9113305504225707 0.02198160768164959
-0.4343999032670601 0.9002663832008175 0.02858606863643621
-0.4594842802340542 0.8873861117387348 0.03768401399801128
-0.4867538428941794 0.8721293933547744 0.04960864515768562
-0.5165802564096704 0.8537928609011649 0.06467294149737439
-0.5492677714168205 0.8314995076699743 0.08314736332193196
-0.5850209833561577 0.8041645448189092 0.1052132781030523
-0.6238878897758113 0.7704746971272791 0.1308917189042615
-0.6656729962562394 0.7289003107524847 0.159949363988018
-0.7098253598294301 0.6777648375104618 0.1917883822796293
-0.7553181934449457 0.6154002480222719 0.225337438933679
-0.8005536245927564 0.5404113403131789 0.2589777546669079
-0.8433453822700533 0.4520462644441989 0.2905559171757176
-0.8810421199307583 0.3506171773414321 0.3175411435720438
-0.9108340240064871 0.2378444592582266 0.3373594431942159
-0.9302205405925751 0.1169507752692978 0.3478681675916425
-0.9375222544660028 -0.007631607138782832 0.3478416032527767
-0.9322539825771599 -0.1309298224796231 0.3372831059428839
-0.9152052417604249 -0.2482754903865441 0.3174250247342871
-0.8882015884189337 -0.3560286216811155 0.2904161821833069
-0.8536622775231031 -0.4519566746579327 0.2588356238353047
-0.8141310456112206 -0.535226845166792 0.2252173722979268
-0.7719174494948987 -0.6061257637695466 0.1917159608902545
-0.7289003058533625 -0.6656730001349616 0.1599493701712945
-0.6864739263337193 -0.7152594060903715 0.1309867568237949
-0.6455870412657293 -0.7563751710562108 0.1054228284549836
-0.6068249184764756 -0.7904387956005594 0.08348669789586344
-0.5704995300752971 -0.8187097324778871 0.06515105624509031
-0.5367274687252288 -0.842259510321605 0.05022491004091865
-0.5054871829251921 -0.8619780650001134 0.03842555604038828
-0.4766574558863883 -0.8785962513985729 0.02943291994164432
-0.450053215789885 -0.8927072478070076 0.02293191378887557
-0.4254585334921415 -0.9047859586984232 0.01863880953524092
-0.4021333595025012 -0.9154365933563057 0.01626667511918805
-0.3727013757627788 -0.9278225614717098 0.01545894332114819
0 0 0
0 0 0
-0.3084583012362226 0.9511426990642576 0.01345520030405545
-0.3236898600746871 0.9460372321193955 0.01544117640279115
-0.3416159423914112 0.9396465666377861 0.0190493493287292
-0.3611504240865415 0.9321812986247028 0.02466571864903409
-0.3823494562628061 0.9234385617568643 0.03271262685798564
-0.4054957964410163 0.9130553881206758 0.04362358642371701
-0.4309735154757537 0.9005087733998111 0.05784270039026208
-0.459196861551476 0.8850934839561748 0.07581402904208832
-0.4905639780673281 0.8658823340843333 0.09795288124105664
-0.5254103965985687 0.8416774819724659 0.1245910570090148
-0.5639407005137999 0.8109681064111659 0.1558897581237842
-0.6061257588572131 0.7719174548644518 0.1917159548012472
-0.6515625567963437 0.7224135089184116 0.2314842472247281
-0.6993080213651626 0.6602291338831362 0.2739813534280476
-0.7477224767164148 0.5833388966236668 0.3172173221924571
-0.7943911257740542 0.4904125920198432 0.358382796573453
-0.8362190461842994 0.3814301067334704 0.394016218544254
-0.8697834479808187 0.2582422886047265 0.4204612633701121
-0.8919415851146872 0.1247978809057691 0.4345868125754949
-0.9005416472915213 -0.01321620522696254 0.4345688362191559
-0.8949597955687082 -0.1493397140006608 0.4204100547534705
-0.8762161092371374 -0.2775906244855266 0.393940065379326
-0.8466262266278773 -0.3935077692455766 0.3582955036407955
-0.8091762723887261 -0.4946287879067703 0.3171373872266796
-0.7668948342885495 -0.5803744829759665 0.2739302331834096
-0.7224135007909301 -0.6515625630241195 0.231484255059459
-0.6777648298952117 -0.709825364999489 0.1917883900564803
-0.6343663560289874 -0.7571172980006153 0.1560535914573928
-0.5931086888099598 -0.7953813815717322 0.124862088350197
-0.5544795839948595 -0.8263661565175834 0.09834310497052577
-0.5186831491550991 -0.851552320045333 0.0763311011839836
-0.4857363709636942 -0.8721462438656057 0.05849023195487636
-0.4555407919363167 -0.8891067412315861 0.04440483733313472
-0.4279382125534641 -0.9031816190168598 0.03364296816022348
-0.4027701108956356 -0.9149374492090163 0.0258011977244401
-0.3799656471365699 -0.9247726308778482 0.02053504748838598
-0.3596867761371014 -0.9329076657472336 0.01757015259312712
-0.3432361239391291 -0.9391017993827976 0.01663651463600617
0 0 0
0 0 0
-0.266201701120146 0.9638108628421357 0.01432742085086341
-0.2766762749071843 0.960819318202389 0.01662758769575838
-0.2912345503106478 0.9564227972750791 0.02092533292130442
-0.3079692285842175 0.9509972361218462 0.0275537861981078
-0.3265269742688497 0.9444648901096255 0.03696222970874682
-0.3470715455525797 0.9365232333726906 0.04965456294142431
-0.3699663267363253 0.926684862054539 0.06618219942091656
-0.3956603269545832 0.9142545043888934 0.08712982772168551
-0.4246319633349959 0.8982761811112248 0.1130822628111946
-0.4573392878768343 0.8774636673207133 0.1445624027760816
-0.4941491764122648 0.8501286209140055 0.1819283357641983
-0.5352268430022629 0.8141310488687514 0.225217365666365
-0.580374478696752 0.7668948404818839 0.2739302249109044
-0.6288218677486578 0.7055539322660085 0.326767053579552
-0.6790009730074263 0.6273098420537384 0.3813660193534313
-0.7283839657838171 0.5300608749658233 0.4341569615006818
-0.7735163012681532 0.4132667110701413 0.4805030251660266
-0.8103864633132545 0.2788222558591581 0.5152979038539209
-0.8351748760967186 0.1315089717903142 0.5340302582021778
-0.8452007462640018 -0.02142248215756952 0.5340194526166464
-0.8396689757279131 -0.1716259062630399 0.5152674640411783
-0.8198358374908009 -0.3114932667231581 0.4804593056148376
-0.7885238398893979 -0.4356347155110121 0.4341112168185914
-0.7492760693513598 -0.5414515681368434 0.3813339366743134
-0.705553922718989 -0.628821872605239 0.3267670648475561
-0.6602291226974193 -0.6993080279545758 0.2739813635641626
-0.6154002374865017 -0.755318199064412 0.2253374488709098
-0.5724341155397553 -0.7994665909474928 0.1821327903618993
-0.5321123094256552 -0.8341888368346632 0.1448636416017723
-0.4947974998011213 -0.8615657771080445 0.1134894087867679
-0.4605774945666664 -0.8832814131772592 0.08764882562975751
-0.4293742936580723 -0.9006515469999965 0.06681696515215382
-0.4010227239082698 -0.9146800109240637 0.05041083737794828
-0.375333252869912 -0.9261165074632111 0.03785715116373824
-0.3521649414720375 -0.9354997909960077 0.02863555559827016
-0.3315605294148115 -0.9431701597240998 0.02230840962922694
-0.3140924896522369 -0.949211308279121 0.01854184939800472
-0.3019443220472177 -0.9531728242034636 0.01706439519698533
0 0 0
0 0 0
-0.2163313265012292 0.9761905876098195 0.01589634663100851
-0.2254851232867903 0.9740766804038016 0.01819560028827206
-0.2376891714602763 0.9710700051747098 0.02295436386650768
-0.2516194476029826 0.9673473575969223 0.03044245946406832
-0.2671230790076167 0.9627858913339572 0.04109243372894093
-0.2844270600446153 0.9570921302321536 0.05546081285064948
-0.3039201553892188 0.949803362246524 0.07420318196270882
-0.3260816244370959 0.9402428406227805 0.09805189881929244
-0.351445969268144 0.9274470158714491 0.1277801370961797
-0.3805656589455511 0.9100709639872128 0.1641359794156148
-0.4139494884971981 0.8862816476974477 0.2077273740449362
-0.4519566726228237 0.8536622809146478 0.2588356162032308
-0.494628783096642 0.8091762789347967 0.3171373780265745
-0.5414515626961924 0.7492760794660307 0.3813339245252975
-0.5910680485934586 0.6702786283724385 0.4487372530547056
-0.6410233002926012 0.5691279474686073 0.5149587438738674
-0.6877019625504045 0.4445557542102047 0.5739653230839975
-0.7266667961493938 0.2983742922634314 0.6188118850589986
-0.7535117519560062 0.1362714244442495 0.6431563873150331
-0.7650436596295485 -0.03263523219941064 0.6431509468856573
-0.7602641734722356 -0.1977091462944719 0.618796800255212
-0.7406020447829151 -0.34942191957107 0.5739450612964914
-0.7092867344855821 -0.4814010163331975 0.5149421227246256
-0.6702786140685744 -0.5910680546713369 0.4487372664147165
-0.627309828896144 -0.6790009780205047 0.3813660320708809
-0.5833388825502158 -0.7477224825033643 0.3172173344318866
-0.5404113276545301 -0.8005536293262198 0.2589777664497189
-0.4997685437527483 -0.8408274666861493 0.2079436797342234
-0.4620487649957565 -0.871476841712986 0.1644355591830875
-0.4274854273803161 -0.8948904435136441 0.1281690426172463
-0.3960644432864103 -0.9129207022693033 0.09853297992219254
-0.3676353024968106 -0.926958909091691 0.07477610055104553
-0.3419859704008885 -0.9380276523980003 0.05612236083468251
-0.3188973092677108 -0.9468654513290484 0.04183686438120096
-0.2981982174940626 -0.9539919526928313 0.03125983494329387
-0.279861088890187 -0.9597449348276377 0.02382081018546533
-0.26425602811369 -0.9642645222891634 0.01904422904787081
-0.2530224745640273 -0.9673181938319001 0.01658732188408541
0 0 0
-0.1260004347748845 0.991893310403291 0.01647881105359426
-0.1557882823101938 0.9876455307632088 0.01692089413413392
-0.1699883332554512 0.9852527515867849 0.01951876142849072
-0.1812376044798447 0.983126818324767 0.02479092198824651
-0.1924467299161896 0.9807501629070008 0.03306620786326004
-0.204530058534166 0.9778335184058206 0.04482259963571648
-0.2179911483387783 0.9740619050408951 0.06068990355934394
-0.2332843923930253 0.9689927857875286 0.08143324479315121
-0.2509033642953306 0.9619758288650714 0.107935195671491
-0.2713988211036898 0.9520584847623416 0.1411641650545955