# OOMMF: rectangular mesh v1.0
# Segment count: 1
# Begin: Segment
# Begin: Header
# Title: 
# meshunit: m
# valueunit: (none)
# valuemultiplier: 1
# xmin: 0
# ymin: 0
# zmin: 0
# xmax: 9.357999999999999e-08
# ymax: 9.357999999999999e-08
# zmax: 2.3395e-08
# ValueRangeMaxMag: 1
# ValueRangeMinMag: 0
# meshtype: rectangular
# xbase: 1.16975e-09
# ybase: 1.16975e-09
# zbase: 1.16975e-09
# xstepsize: 2.3395e-09
# ystepsize: 2.3395e-09
# zstepsize: 2.3395e-09
# xnodes: 40
# ynodes: 40
# znodes: 10
# End: Header
# Begin: Data Text
0 0 0
0 0 0
0 0 0
0 0 0
0 0 0
0 0 0
0 0 0
0 0 0
0 0 0
0 0 0
0 0 0
0 0 0
0 0 0
0 0 0
0 0 0
0 0 0
-0.9866643948836288 0.1622296578920772 0.01322535327096353
-0.9912858888855715 0.1309590018883861 0.01421359633378148
-0.9959480718496463 0.08869881302060523 0.01483100629447901
-0.9989963686866542 0.04218023680612202 0.01506927250590846
-0.9998706179643053 -0.005535128448853827 0.01510330045825995
-0.9985226298770189 -0.05217713064577576 0.01516920106844846
-0.9953923332253152 -0.09461849899710476 0.01553842346563645
-0.9918967010751352 -0.1259863029738023 0.01638248635759474
0 0 0
0 0 0
0 0 0
0 0 0
0 0 0
0 0 0
0 0 0
0 0 0
0 0 0
0 0 0
0 0 0
0 0 0
0 0 0
0 0 0
0 0 0
0 0 0
0 0 0
0 0 0
0 0 0
0 0 0
0 0 0
0 0 0
0 0 0
0 0 0
0 0 0
0 0 0
0 0 0
0 0 0
-0.9278184141764636 0.3727157369942179 0.01536130567135561
-0.9390981993750009 0.3432506505023352 0.01653973580060654
-0.9531698787423802 0.301959025744625 0.01696847163395589
-0.9673159294841549 0.2530373656010192 0.01649194275702634
-0.9810417840598759 0.1931662492161676 0.01561467554491014
-0.9894633754866639 0.1438896085527835 0.01606266232801209
-0.99535746862223 0.0948079506215113 0.01658198289997633
-0.9988614020367603 0.04462610442475917 0.01686446930761404
-0.9998380954889414 -0.006092142715072447 0.01693129074185711
-0.9982603992018533 -0.05648302314847012 0.01690690632154488
-0.9942271422843026 -0.1059553569139349 0.01690715488865708
-0.9876494491761683 -0.1557737785549554 0.01682544075864783
-0.9761952683031708 -0.21631719106151 0.01580098078468219
-0.9638161016853194 -0.2661878778642532 0.01423150765867486
-0.9511484621606758 -0.3084447360951582 0.01335843196520226
-0.9408382812010977 -0.3385814860806554 0.01363473175308843
0 0 0
0 0 0
0 0 0
0 0 0
0 0 0
0 0 0
0 0 0
0 0 0
0 0 0
0 0 0
0 0 0
0 0 0
0 0 0
0 0 0
0 0 0
0 0 0
0 0 0
0 0 0
0 0 0
0 0 0
0 0 0
0 0 0
-0.8784997247703182 0.4775290153030714 0.01429241484682539
-0.8935778301274965 0.4486465597650224 0.01532729316104276
-0.91543187827836 0.4021480001640389 0.01616979269555979
-0.9329036667745763 0.3597018342372039 0.01747395103979249
-0.9492080750602018 0.3141078824256543 0.01844636654133542
-0.9642620933716418 0.2642717175332834 0.01894926379960407
-0.977521172628717 0.2099519579468468 0.0193010988511774
-0.987496022653588 0.1563770598438126 0.0199454355166361
-0.9945096684432871 0.1026073595216627 0.02054870177930643
-0.9986151741896464 0.04828228507391234 0.02089389447237867
-0.9997604197732939 -0.006396772479191852 0.02093285352206445
-0.9979199840868611 -0.06105086068956477 0.02070018765957656
-0.9931057339882627 -0.1154642001322845 0.02022423317323174
-0.9852572533330642 -0.1699730907215509 0.0194240362733706
-0.9740818781807469 -0.2254703114413028 0.01810064248666129
-0.9608251122748424 -0.2766618747783931 0.01653211015390248
-0.9460435839584358 -0.323675870062511 0.01534497932074011
-0.9299026723299282 -0.3675077196226294 0.01480189215716936
-0.909568565532766 -0.415300772692037 0.01450147565121735
-0.8953971463013957 -0.4450281516257549 0.01462513780724129
0 0 0
0 0 0
0 0 0
0 0 0
0 0 0
0 0 0
0 0 0
0 0 0
0 0 0
0 0 0
0 0 0
0 0 0
0 0 0
0 0 0
0 0 0
0 0 0
0 0 0
0 0 0
0 0 0
-0.8410633221535261 0.5407385576872011 0.01463900127874186
-0.8623416281324306 0.5060940718156269 0.01535274773411139
-0.8831353441095295 0.4688161125891825 0.0168349802883575
-0.904780744792071 0.4254738222447585 0.01854266534078028
-0.9247682329637338 0.3799815012456388 0.0204395208418247
-0.9431666620349609 0.3315768512956125 0.02221349388809583
-0.9597424020360803 0.2798777958080026 0.02372638083796673
-0.9740273134319223 0.2250422819465563 0.02503525563835401
-0.9853319382624298 0.168624209463419 0.02620777409165985
-0.9934439769717301 0.1110609810097737 0.02710208692589551
-0.9982317372965311 0.05265825676832242 0.0275772850017946
-0.999600710658534 -0.006193440081138586 0.02756919568857069
-0.9975143812948214 -0.06505367986274327 0.02707541036300009
-0.9919993678626062 -0.1235122202261611 0.02611485429776659
-0.983132147668346 -0.1812215418760135 0.02469682127532405
-0.9710760460013669 -0.2376735916707109 0.02285993667302937
-0.9564294605436863 -0.2912194717485335 0.02083041714939577
-0.9396537874706832 -0.3416013939355672 0.01895382160085573
-0.9210290586592559 -0.3891036894026794 0.01742962990047444
-0.9005884484554864 -0.43436867344789 0.01625736865730195
-0.8807663831635338 -0.473295125895812 0.01556605577190242
-0.8605473256139867 -0.5091399164228808 0.01532468216689383
0 0 0
0 0 0
0 0 0
0 0 0
0 0 0
0 0 0
0 0 0
0 0 0
0 0 0
0 0 0
0 0 0
0 0 0
0 0 0
0 0 0
0 0 0
0 0 0
-0.7673195740214596 0.6410748752028013 0.01561011554211313
-0.787826321700533 0.6156816464905893 0.01630328219852313
-0.8190132797666774 0.5735370250307986 0.01650843677187052
-0.8449136016031497 0.5346020591723483 0.01793444046181858
-0.8691538825038784 0.4941302221558667 0.02017057462313953
-0.892701582198124 0.4500693066174874 0.022836470432615
-0.9149327352659593 0.4027868853202557 0.02570632126066617
-0.9354961452960558 0.35218228417767 0.02854121314203545
-0.953989462977174 0.2982160103885706 0.0311659377597831
-0.9699176119263986 0.2411201571135931 0.03347978357916602
-0.9827364174439751 0.1815947932349986 0.03539018083195927
-0.9920636374502556 0.120244004824347 0.03675756456526653
-0.997633732283315 0.05765500521829748 0.03745446013147782
-0.999284595836086 -0.005552977582599738 0.03740937001176082
-0.9969628618425876 -0.06873517308757755 0.03661322284718778
-0.9907284030191702 -0.1312430267334766 0.03510697060300506
-0.9807566094116552 -0.1924299296802478 0.03297264409488932
-0.9673545355838434 -0.2516031944362063 0.03034855902448397
-0.951005040779686 -0.3079535543106739 0.02745943916124586
-0.9321896383588208 -0.361135365396586 0.02457083629681061
-0.9113393408344195 -0.4110737184094674 0.02188615728032712
-0.8888682814558887 -0.4577470495563132 0.01951452905259218
-0.8654666858312609 -0.5006602997496564 0.01751228057213756
-0.840367696465847 -0.5417875732923589 0.0157594467752598
-0.8102690051954988 -0.5858948386475071 0.01383391722209334
-0.7903215521702269 -0.6125543563803771 0.01300017902433805
0 0 0
0 0 0
0 0 0
0 0 0
0 0 0
0 0 0
0 0 0
0 0 0
0 0 0
0 0 0
0 0 0
0 0 0
0 0 0
-0.7202333846879375 0.6935791402746951 0.01455499078570171
-0.7453940679602498 0.6664392165748934 0.01569885539498036
-0.7708997267971548 0.6367214058769221 0.0173049854720361
-0.7990365302470243 0.6009750072452567 0.0192266481051528
-0.826324990866249 0.5627661180835549 0.02193868289254009
-0.8528333651149422 0.521565712604662 0.02538619274160733
-0.8785902168057751 0.4766744238645211 0.0293381077543742
-0.9031767146921265 0.4279559659892684 0.03354866930489052
-0.9261128794182584 0.3753516566217949 0.03776332144946806
-0.9468632081948594 0.3189162129017312 0.04174343200259765
-0.9648409284475873 0.2589057754154933 0.04527452096819388
-0.9794525889808042 0.1958415051293825 0.0481532014247999
-0.9901932528964846 0.130379741199805 0.05018411106067173
-0.9966811926120966 0.06327773683151308 0.05121062697145774
-0.9986804947880942 -0.004631580169761156 0.05114506618372805
-0.9961170480800343 -0.07247528151664889 0.04998159754750452
-0.9890848118116679 -0.1393805580405356 0.04779429969971381
-0.9778414136500179 -0.2045126986978592 0.04472947375336413
-0.9627945171436365 -0.2671063464619247 0.04099899313292504
-0.9444741167478609 -0.3265108950603001 0.03686839025872236
-0.9234482736246733 -0.3823340571625077 0.03261831806311137
-0.9002764752806311 -0.4343852172322386 0.0284912461360258
-0.8754994722031471 -0.4825892699539135 0.02466314451482659
-0.8496272884554554 -0.5269556577199312 0.02124159854588126
-0.8227728879640676 -0.5680768915049147 0.01825979653174525
-0.7950138118337677 -0.6063859531779536 0.01578337042606737
-0.7697736601649924 -0.6381567112059394 0.01430119082487142
-0.7451208728165479 -0.6667839022280517 0.01393243060765817
0 0 0
0 0 0
0 0 0
0 0 0
0 0 0
0 0 0
0 0 0
0 0 0
0 0 0
0 0 0
0 0 0
-0.6667839022257925 0.7451208728185288 0.01393243060984846
-0.693689511043706 0.7201173189348623 0.01503027737633778
-0.7205012557823998 0.6932443760085871 0.01703453986608005
-0.7479719801702415 0.6634346778335395 0.01980770375675599
-0.7765511039199209 0.6296233650935481 0.02329809281955098
-0.8053010932124312 0.5922230236191701 0.0276050641410352
-0.8338772614262856 0.5509817585887691 0.03267743225262324
-0.8619717741192637 0.5055050676913259 0.03833128174320142
-0.8891018043199296 0.4555595625675091 0.0443110201681818
-0.9146766054518892 0.4010422219441877 0.05031742895933011
-0.938025909428019 0.3420060097394934 0.05602930076136048
-0.9584272156245787 0.2787142100046119 0.06112005801389422
-0.9751567785281883 0.2116808217378865 0.06527240610624623
-0.9875653416062902 0.1416448783307225 0.06820135263120408
-0.9951425275416467 0.06953279812823883 0.06968887904450793
-0.9975673702662162 -0.003595592087289616 0.06961618703783952
-0.9947403837147054 -0.07661626891975776 0.06798173537013759
-0.9867928025881595 -0.148417344514033 0.06490189987672342
-0.9740716362759785 -0.2179734780623626 0.06059711432101342
-0.9571025534141664 -0.2844101186340874 0.05536774030630669
-0.9365341893990005 -0.3470553348061468 0.04956114071881228
-0.9130667399497987 -0.4054803185978259 0.04352975565347893
-0.8873977413515245 -0.4594695431153463 0.03758972723480844
-0.8601878111162583 -0.5089726980846178 0.03199565926003772
-0.8320248546334151 -0.5540839943227113 0.02693637888866558
-0.8033518265285717 -0.5950775313051819 0.02255159748082869
-0.7746539420271205 -0.6321002127931491 0.0189892361272882
-0.7469845912102846 -0.6646375007964126 0.01646247337134156
-0.720117318941202 -0.6936895110369787 0.01503027738306858
-0.69357914027255 -0.7202333846900476 0.01455499078351137
0 0 0
0 0 0
0 0 0
0 0 0
0 0 0
0 0 0
0 0 0
0 0 0
0 0 0
-0.6125543563784862 0.7903215521716639 0.01300017902607199
-0.6381567112126721 0.7697736601595284 0.01430119081854735
-0.6646375007848843 0.746984591220297 0.01646247338246691
-0.6921991919627993 0.7214396374158507 0.01962468372568096
-0.7208699009953211 0.6926615481983396 0.02380263612448847
-0.7506022224768639 0.6601180524542445 0.02899069569374429
-0.7809939783125057 0.6235466578558476 0.03518481656065771
-0.8116836087945429 0.5825639052385865 0.0422967555190008
-0.8422530933140971 0.5367463106225043 0.05013107654902671
-0.8721414542570385 0.4857562122312559 0.05839679824408608
-0.9006486010140268 0.4293949469222287 0.06672388664588154
-0.926957965416537 0.3676565389649265 0.07468332951311982
-0.9501751335724659 0.3007887183169007 0.08181297252772429
-0.9693915884848118 0.2293404446447089 0.08765220262526255
-0.983771860476206 0.1541686617481789 0.09178752785623526
-0.9926451061313079 0.07640446367902258 0.09390447914495413
-0.9955844773214076 -0.002621210015337717 0.09383324450702178
-0.9924587615202344 -0.08148358000693605 0.09157528526286524
-0.9834457180176831 -0.1587844929258493 0.0873040922234686
-0.9690048104977453 -0.2332667259213684 0.08134071434499079
-0.9498159850262297 -0.3039033465527596 0.07411039429584843
-0.9266978906864758 -0.3699503341291776 0.06608910405616078
-0.9005220530491773 -0.4309582995706258 0.05774925110587033
-0.8721428008258039 -0.4867393755771689 0.04951479809581365
-0.8423479644108399 -0.5373156827501717 0.04173444528959853
-0.8118242299719205 -0.5828713584938207 0.03467562657063022
-0.7811411180409167 -0.6237019856728768 0.02853746263241664
-0.750822765153891 -0.6600863463627209 0.02347745029125729
-0.721439637430597 -0.6921991919469841 0.01962468374141844
-0.6932443759976989 -0.7205012557931394 0.01703453985495484
-0.6664392165813102 -0.7453940679543796 0.0156988554013039
-0.6410748752009886 -0.7673195740230093 0.01561011554037897
0 0 0
0 0 0
0 0 0
0 0 0
0 0 0
0 0 0
0 0 0
0 0 0
-0.5858948386519964 0.8102690051923211 0.01383391721807281
-0.6063859531669933 0.7950138118419295 0.01578337043604245
-0.6321002128095163 0.7746539420141384 0.01898923611205608
-0.6600863463417709 0.7508227651716834 0.02347745031127014
-0.6896810387602725 0.7235208068910496 0.02928663125515684
-0.7206487755534118 0.692342739717935 0.03642626872507928
-0.7527169261369903 0.6568138850885384 0.0448636764184621
-0.7855522850487348 0.6163920784148056 0.05448314530372567
-0.8187033303139418 0.570519384843061 0.06505757796871398
-0.8515478729192316 0.5187041465199936 0.07623797288554165
-0.8832791892774227 0.4605994114707185 0.08755601602543488
-0.9129208998150553 0.3960869938897302 0.09844045891942106
-0.9393718478414375 0.3253648302114067 0.1082509064371527
-0.9614866528804494 0.249018625563143 0.1163320267827939
-0.9781890348045136 0.1680509774544451 0.1220863676452824
-0.9886002233825557 0.08384955442634554 0.1250553899296771
-0.9921560961448199 -0.001911791987365236 0.1249905033755267
-0.9886851075561539 -0.08742658921216549 0.1218948300601923
-0.9784273118585799 -0.1709342841144448 0.1160235576229029
-0.9619906832558704 -0.2508860936146452 0.1078429105675782
-0.9402581218739197 -0.3260653743063094 0.09795935855554967
-0.9142699842814038 -0.3956449880636337 0.08703699938651489
-0.8851089947393854 -0.4591823332259051 0.07572088407201766
-0.8538082846179232 -0.5165664601680802 0.06457944988321052
-0.8212899518309486 -0.5679427759557539 0.05407234284909484
-0.7883324070298275 -0.6136350272233467 0.0445428938345955
-0.7555677616727454 -0.6540678725087452 0.0362294862331861
-0.7235208069136038 -0.6896810387355795 0.02928663127946792
-0.6926615481788185 -0.7208699010147391 0.02380263610447643
-0.6634346778490184 -0.7479719801561086 0.01980770377198664
-0.6367214058664463 -0.7708997268060312 0.01730498546206253
-0.6156816464949092 -0.7878263216970739 0.01630328220254158
0 0 0
0 0 0
0 0 0
0 0 0
0 0 0
0 0 0
0 0 0
-0.5091399164258121 0.8605473256122966 0.01532468216441482
-0.5417875732828557 0.8403676964718197 0.01575944678347082
-0.5680768915207016 0.8227728879534759 0.018259796517854
-0.595077531283828 0.8033518265438516 0.0225515974999881
-0.6237019856989541 0.7811411180209692 0.02853746260850004
-0.6540678724788682 0.7555677616972617 0.03622948626128229
-0.6861398923261673 0.7260362418517945 0.04564453610627988
-0.7197691202681031 0.691890026857772 0.05675036778058689
-0.7546812197244472 0.6524087018543998 0.06942004278215917
-0.7904325380739091 0.606845881558906 0.08339351766793313
-0.8263622419342431 0.5545018789877677 0.09825024836836585
-0.8615645453569526 0.4948208604575731 0.1133968705030873
-0.8948921505284059 0.4275094934078875 0.1280768205756836
-0.9250025036012894 0.3526662024004351 0.1414104593578609
-0.9504568856450636 0.2708950061305201 0.1524716504253547
-0.9698707459701457 0.1833664632739971 0.160397868619563
-0.9820940212158807 0.09179051960332785 0.164516971777904
-0.9863821064534833 -0.001715320844966767 0.1644609307488785
-0.9825117194451288 -0.09484679327838058 0.1602336012133044
-0.9708080133561733 -0.185374459178028 0.1522107456387131
-0.9520767825600641 -0.2713824362685961 0.141072227582176
-0.9274654658157614 -0.3514308056891668 0.127687895008945
-0.8982945178119786 -0.4246178112594023 0.1129897058595117
-0.8659003863458669 -0.4905506493266082 0.09786000905028058
-0.831517176799534 -0.5492551221743978 0.0830541717947971
-0.7962054849346752 -0.6010602469180748 0.06916216693193558
-0.7608240416374361 -0.6464849749560035 0.05660348772480299
-0.7260362418807036 -0.6861398922934722 0.04564453613792883
-0.6923427396907297 -0.7206487755809686 0.03642626869698513
-0.6601180524785264 -0.7506022224545855 0.02899069571765813
-0.6296233650733282 -0.7765511039368898 0.02329809280039482
-0.6009750072603904 -0.7990365302353076 0.01922664811904076
-0.5735370250216074 -0.8190132797732792 0.01650843676366213
-0.5407385576900546 -0.8410633221516483 0.01463900128122029
0 0 0
0 0 0
0 0 0
0 0 0
0 0 0
-0.445028151627856 0.8953971463003793 0.0146251378055279
-0.4732951258878862 0.8807663831676769 0.01556605577845958
-0.5006602997640444 0.8654666858231822 0.01751228056005187
-0.5269556576992732 0.8496272884678275 0.02124159856349406
-0.5540839943490042 0.8320248546166426 0.02693637886589099
-0.5828713584627534 0.8118242299930564 0.03467562659801442
-0.613635027258197 0.7883324070044706 0.0445428938032649
-0.6464849749184317 0.7608240416667911 0.05660348775935323
-0.6813871924422146 0.7284850999780057 0.07085868391207295
-0.7181489477652122 0.690405098384768 0.08719454654986582
-0.7563691576284485 0.6456092488833636 0.1053299347037198
-0.7953781591796709 0.5931324860440856 0.1247695391476623
-0.8341888454023532 0.5321373783168853 0.1447714778688132
-0.8714804232064006 0.4620746473830181 0.1643438231691466
-0.9056382236011337 0.3828716588883851 0.1822874125457888
-0.9348699729150957 0.295112391717717 0.1972987835653745
-0.9574027392644413 0.2001516897888355 0.2081328804480864
-0.9717348387330494 0.1001026111009682 0.2138010066468866
-0.9768845347698335 -0.002338576359402231 0.2137548520809215
-0.9725619342281594 -0.1042110170178718 0.2079984327404455
-0.9592077888058586 -0.2026740288427088 0.1970879395773359
-0.9378892274818803 -0.2953518661871452 0.1820194278455235
-0.9100931165289265 -0.3805522453645237 0.1640442251183641
-0.8774852650237702 -0.4573269776505395 0.1444702224653433
-0.8416983650956597 -0.5253988834667741 0.1244984957626404
-0.8041846550319086 -0.5850100399232496 0.1051203776639301
-0.7661397506029016 -0.6367477428278328 0.08707579772694203
-0.7284851000110746 -0.6813871924030106 0.07085868394909051
-0.6918900268247135 -0.7197691203026052 0.05675036774604023
-0.6568138851202039 -0.7527169261074921 0.04486367644978731
-0.6235466578269225 -0.780993978336833 0.03518481653328019
-0.5922230236441034 -0.8053010931933146 0.02760506416380313
-0.5627661180636963 -0.8263249908802411 0.02193868287493339
-0.5346020591863172 -0.8449136015940547 0.01793444047389942
-0.506094071807877 -0.8623416281370957 0.01535274772755695
-0.4775290153051353 -0.8784997247691683 0.01429241484853854
0 0 0
0 0 0
0 0 0
0 0 0
-0.4153007726874835 0.9095685655347867 0.01450147565487937
-0.4343686734598162 0.9005884484499086 0.01625736864763538
-0.4577470495374639 0.888868281465257 0.01951452906802819
-0.4825892699791999 0.8754994721897986 0.02466314449388882
-0.5089726980536214 0.8601878111336327 0.03199565928600825
-0.5373156827859461 0.8423479643895245 0.04173444525923616
-0.5679427759162673 0.8212899518560164 0.05407234288308914
-0.601060246960133 0.7962054849061216 0.06916216689513768
-0.6367477427843611 0.7661397506346271 0.08707579776569416
-0.67491889058541 0.729983141991009 0.1077455499772187
-0.7152536662192125 0.6864975607600967 0.1308942016684172
-0.7571148500882338 0.63439192944659 0.1559614812346422
-0.7994680109280987 0.5724612522558279 0.1820412430422245
-0.840833221484773 0.4997966610637636 0.2078528114725695
-0.8793056427674503 0.4160536821164085 0.2317777387815726
-0.9126825202175775 0.3217310546386234 0.2519915589269014
-0.9387141614267941 0.2183734290115974 0.2666997724755444
-0.955451190885079 0.1085936544507374 0.2744456959934291
-0.9616039273636396 -0.004156354785345867 0.2744095690636935
-0.956796759500249 -0.1160472219256276 0.2665952049328091
-0.9416239475466913 -0.2234414634409167 0.2518298112256903
-0.9174906128702115 -0.3233931376218275 0.2315768853624062
-0.8863080034653836 -0.4139386556942654 0.2076364908084068
-0.8501538300766504 -0.4941395066735679 0.1818367761218958
-0.8109920460718136 -0.5639317302118767 0.1557976407667714
-0.7704973786352323 -0.6238792900392124 0.1307991627511566
-0.7299831420255748 -0.6749188905416569 0.1077455500171028
-0.6904050983483039 -0.7181489478049721 0.08719454651111978
-0.6524087018913108 -0.7546812196891542 0.06942004281894766
-0.6163920783789437 -0.7855522850792314 0.05448314526974276
-0.5825639052719292 -0.8116836087690305 0.04229675554935083
-0.5509817585593114 -0.833877261446767 0.03267743222666498
-0.5215657126290432 -0.8528333650994087 0.02538619276253379
-0.4941302221374992 -0.8691538825146786 0.02017057460771281
-0.4688161126008898 -0.8831353441031303 0.01683498029801739
-0.4486465597605314 -0.8935778301298141 0.01532729315738422
0 0 0
0 0 0
0 0 0
-0.3385814860785877 0.9408382812018184 0.01363473175470151
-0.3675077196312089 0.9299026723266451 0.01480189215040824
-0.3891036893868189 0.9210290586657183 0.01742962991306742
-0.4110737184324548 0.9113393408244923 0.02188615726193901
-0.4343852172026693 0.9002764752941441 0.02849124615986092
-0.4594695431506781 0.8873977413344466 0.03758972720609986
-0.4867393755370932 0.8721428008463059 0.04951479812864967
-0.5165664602117466 0.8538082845942349 0.06457944984711328
-0.54925512212836 0.8315171768261058 0.08305417183322179
-0.5850100399704304 0.8041846550027898 0.1051203776241256
-0.623879289992069 0.7704973786665671 0.1307991627914336
-0.665667457076784 0.7289255704701975 0.1598572779188513
-0.709823641012395 0.6777924999011496 0.1916969632979517
-0.7553210472364787 0.6154298792932403 0.2252469295566447
-0.8005616914758812 0.5404422054914882 0.2588883942257191
-0.8433590682642023 0.4520773191609651 0.2904678630705487
-0.881061451423592 0.3506471602024118 0.3174543870500717
-0.9108585508299821 0.2378720670736361 0.3372737465116727
-0.9302493239027048 0.1169749211758722 0.3477830691601573
-0.937553989294143 -0.007611566488849659 0.3477564970122385
-0.9322872170792694 -0.1309139596228276 0.3371973903316324
-0.9152386303751679 -0.2482633509163763 0.3173382392034693
-0.8882340797753845 -0.3560194040233057 0.290328096271211
-0.8536931982108716 -0.4519494548701747 0.2587462339263025
-0.8141600753862568 -0.535220774332229 0.2251268406260198
-0.7719445396042471 -0.606120176503229 0.1916245271641412
-0.7289255705034583 -0.6656674570307717 0.1598572779587885
-0.6864975607230041 -0.715253666262183 0.1308942016281498
-0.6456092489228958 -0.7563691575891641 0.105329934743509
-0.6068458815184692 -0.7904325381090059 0.08339351762952726
-0.5705193848828002 -0.8187033302833825 0.06505757800479049
-0.536746310585046 -0.8422530933399215 0.05013107651621197
-0.5055050677250174 -0.8619717740982296 0.0383312817718893
-0.4766744238359028 -0.878590216822097 0.02933810773055804
-0.4500693066399777 -0.8927015821863152 0.02283647045098719
-0.4254738222291206 -0.9047807447996826 0.018542665328199
-0.4021480001725425 -0.9154318782745051 0.01616979270231442
-0.3727157369921612 -0.9278184141773164 0.01536130566974369
0 0 0
0 0 0
-0.3084447360988513 0.9511484621595184 0.01335843196234619
-0.32367587005106 0.9460435839622093 0.01534497932962864
-0.3416013939548197 0.939653787463987 0.01895382158584258
-0.3611353653699094 0.9321896383686046 0.02457083631770982
-0.3823340571959151 0.9234482736117704 0.03261831803681827
-0.405480318558625 0.9130667399657301 0.04352975568446762
-0.4309582996144956 0.9005220530304158 0.05774925107104716
-0.4591823331786122 0.8851089947606967 0.0757208841096981
-0.4905506493760191 0.8659003863223382 0.09786000901078329
-0.5253988834165415 0.8416983651210594 0.1244984958029078
-0.5639317302616988 0.8109920460448622 0.1557976407267262
-0.6061201764549349 0.7719445396324996 0.1916245272030858
-0.6515612963349207 0.7224435996402763 0.2313938686680299
-0.6993120491148684 0.6602617489883019 0.2738924620826065
-0.7477326634110809 0.5833731231330213 0.3171303569105228
-0.7944080742614335 0.4904470489233991 0.3582980655132946
-0.8362428745816906 0.3814630507578145 0.393933745213445
-0.869813622874836 0.2582718752541096 0.4203806607279618
-0.8919768791894909 0.1248225649154934 0.4345072775907134
-0.9005803044669862 -0.01319728739641327 0.4344892942427077
-0.8949998597904603 -0.1493265446030921 0.4203294351481426
-0.8762558042992631 -0.2775823892328826 0.3938575664115334
-0.8466642278527444 -0.3935031723238354 0.3582107461336041
-0.8092118074856953 -0.4946264202085729 0.3170503982924253
-0.7669276183042955 -0.5803731184904599 0.2738413256171517
-0.7224435996696825 -0.6515612962891253 0.231393868705171
-0.6777924998661775 -0.7098236410563026 0.1916969632590214
-0.6343919294859401 -0.7571148500470178 0.1559614812746636
-0.5931324860017928 -0.7953781592175218 0.1247695391074244
-0.5545018790313941 -0.8263622419002773 0.09825024840783039
-0.5187041464767271 -0.8515478729489571 0.07623797284789548
-0.4857562122724723 -0.8721414542317528 0.05839679827887508
-0.4555595625299411 -0.8891018043407214 0.04431102013722608
-0.4279559660217579 -0.9031767146757561 0.0335486693311535
-0.4027868852940324 -0.9149327352780902 0.02570632123979241
-0.3799815012647085 -0.9247682329555668 0.02043952085681847
-0.3597018342258037 -0.9329036667791379 0.01747395103091601
-0.3432506505060223 -0.9390981993736032 0.01653973580345853
0 0 0
0 0 0
-0.2661878778594804 0.9638161016865837 0.01423150766232601
-0.276661874792153 0.9608251122710616 0.01653211014336127
-0.2912194717263646 0.9564294605500657 0.02083041716641871
-0.3079535543405671 0.9510050407706704 0.02745943913823893
-0.3265108950235531 0.9444741167594584 0.03686839028705836
-0.3470553348486796 0.9365341893849769 0.04956114068597238
-0.3699503340820918 0.9266978907026794 0.06608910409252916
-0.3956449881139275 0.9142699842633343 0.08703699934770354
-0.4246178112072915 0.8982945178315659 0.1129897058996215
-0.4573269777030973 0.8774852650030077 0.1444702224250777
-0.4941395066218469 0.8501538300982973 0.1818367761612402
-0.5352207743819694 0.8141600753639224 0.2251268405885375
-0.5803731184436647 0.7669276183272539 0.2738413256520305
-0.6288264146495653 0.7055899550683599 0.3266805098955285
-0.6790125727565153 0.6273480047197817 0.3812825815752489
-0.7284034844009871 0.5300993828691 0.4340771915158636
-0.7735440206552071 0.4133031858204477 0.4804270232816263
-0.81042181254909 0.2788541075158174 0.5152250697182776
-0.835216332101132 0.1315340155338274 0.5339592506447264
-0.8452460429626947 -0.021405407366524 0.5339484388884185
-0.839715573920116 -0.171616616640751 0.5151946154695244
-0.819881475482943 -0.3114904001968787 0.4803832810840737
-0.7885669092949547 -0.4356362616926325 0.4340314240506906
-0.7493157241776061 -0.5414554618460031 0.3812504797863486
-0.705589955092032 -0.6288264146064848 0.3266805099273249
-0.6602617489577617 -0.6993120491573558 0.2738924620477479
-0.6154298793298056 -0.7553210471955182 0.2252469295940924
-0.5724612522144209 -0.7994680109666972 0.1820412430029237
-0.5321373783616667 -0.8341888453668073 0.1447714779090296
-0.4948208604110819 -0.8615645453889262 0.1133968704630295
-0.4605994115171478 -0.8832791892493694 0.08755601606419332
-0.4293949468776418 -0.9006486010379745 0.06672388660956527
-0.4010422219852307 -0.9146766054320898 0.05031742899212054
-0.3753516565858367 -0.9261128794339859 0.03776332142117711
-0.35218228420722 -0.9354961452842305 0.02854121316500385
-0.3315768512735393 -0.9431666620431213 0.02221349387110307
-0.3141078824394209 -0.9492080750554417 0.01844636655185691
-0.3019590257398369 -0.9531698787439622 0.01696847163031246
0 0 0
0 0 0
-0.2163171910676933 0.9761952683018764 0.01580098077999881
-0.2254703114252894 0.9740818781842282 0.01810064249879388
-0.2376735916954856 0.9710760459957454 0.02285993665424248
-0.2516031944035422 0.9673545355915616 0.03034855904926547
-0.2671063465014855 0.962794517133939 0.04099899310291692
-0.2844101185888022 0.9571025534256385 0.05536774034061444
-0.3039033466024362 0.9498159850132636 0.07411039425831528
-0.3260653742536808 0.9402581218880475 0.0979593585951244
-0.3514308057432682 0.9274654658008203 0.1276878949685683
-0.3805522453103944 0.9100931165443604 0.1640442251583096
-0.4139386557470826 0.8863080034497025 0.2076364907700469
-0.4519494548198425 0.8536931982266758 0.2587462339620737
-0.4946264202554595 0.8092118074697341 0.3170503982600167
-0.5414554618032896 0.7493157241939369 0.3812504798149134
-0.5910796332745687 0.6703210973541699 0.4486585489767276
-0.6410437444371127 0.5691709698110746 0.5148857395989583
-0.6877317910984291 0.4445961629983209 0.5738982796277722
-0.7267054935803547 0.2984085255229184 0.6187499313093864
-0.7535575705484876 0.1362964462914815 0.6430974005524931
-0.7650938574383124 -0.03262095772205396 0.6430919548769511
-0.7603156399436978 -0.1977051627988398 0.618734835175529
-0.7406520496861649 -0.3494260756538691 0.5738780000564744
-0.7093334188387004 -0.4814103336937893 0.5148691013562912
-0.6703210973712532 -0.5910796332365316 0.4486585490013154
-0.6273480046951498 -0.679012572795298 0.3812825815467104
-0.5833731231648071 -0.7477326633725565 0.3171303569428848
-0.5404422054533421 -0.8005616915131812 0.2588883941900081
-0.4997966611071005 -0.8408332214495479 0.2078528115108601
-0.4620746473359713 -0.8714804232388645 0.1643438231292754
-0.4275094934569383 -0.8948921504992055 0.1280768206159835
-0.3960869938405037 -0.9129208998406722 0.09844045887992324
-0.3676565390124758 -0.9269579653946597 0.07468332955057808
-0.3420060096954013 -0.9380259094461401 0.05602930072712345
-0.3189162129407368 -0.9468632081804017 0.04174343203254165
-0.298216010356068 -0.9539894629881421 0.03116593773505664
-0.2798777958328169 -0.9597424020283807 0.02372638085670998
-0.2642717175171715 -0.9642620933762954 0.01894926378750139
-0.2530373656072587 -0.9673159294824432 0.01649194276169643
0 0 0
-0.1259863029760873 0.9918967010748732 0.01638248635588473
-0.1557737785450974 0.9876494491775969 0.01682544076604644
-0.1699730907401508 0.9852572533301308 0.01942403625939746
-0.1812215418488759 0.9831321476728362 0.02469682129571212
-0.192429929715227 0.980756609405675 0.03297264406862926
-0.2045126986560378 0.9778414136573308 0.04472947378470794
-0.2179734781097907 0.97407163626757 0.06059711428557452
-0.2332667258697482 0.9690048105069498 0.08134071438337409
-0.2508860936689302 0.9619906832462041 0.1078429105275157
-0.271382436213211 0.9520767825698623 0.1410722276225952