# OOMMF: rectangular mesh v1.0
# Segment count: 1
# Begin: Segment
# Begin: Header
# Title: 
# meshunit: m
# valueunit: (none)
# valuemultiplier: 1
# xmin: 0
# ymin: 0
# zmin: 0
# xmax: 9.357999999999999e-08
# ymax: 9.357999999999999e-08
# zmax: 2.3395e-08
# ValueRangeMaxMag: 1
# ValueRangeMinMag: 0
# meshtype: rectangular
# xbase: 1.16975e-09
# ybase: 1.16975e-09
# zbase: 1.16975e-09
# xstepsize: 2.3395e-09
# ystepsize: 2.3395e-09
# zstepsize: 2.3395e-09
# xnodes: 40
# ynodes: 40
# znodes: 10
# End: Header
# Begin: Data Text
0 0 0
0 0 0
0 0 0
0 0 0
0 0 0
0 0 0
0 0 0
0 0 0
0 0 0
0 0 0
0 0 0
0 0 0
0 0 0
0 0 0
0 0 0
0 0 0
-0.9070010387455307 0.09269413897940029 -0.4108003314426549
-0.9175999462578306 0.08987620687901472 -0.3872113196494473
-0.9281365411718879 0.05131428057145557 -0.3686860528293927
-0.9329629656083563 -0.001997570528879256 -0.3599668241869555
-0.9302931429779653 -0.05938262983986211 -0.3619784128943055
-0.9202513158347024 -0.1125497803902634 -0.3747933599179709
-0.9050086261850995 -0.1506959434651066 -0.3978066353817137
-0.8911606960344536 -0.1522083561126046 -0.4273935308037387
0 0 0
0 0 0
0 0 0
0 0 0
0 0 0
0 0 0
0 0 0
0 0 0
0 0 0
0 0 0
0 0 0
0 0 0
0 0 0
0 0 0
0 0 0
0 0 0
0 0 0
0 0 0
0 0 0
0 0 0
0 0 0
0 0 0
0 0 0
0 0 0
0 0 0
0 0 0
0 0 0
0 0 0
-0.8172401994117851 0.3601210852794941 -0.4499236161866863
-0.8469261143668285 0.3706362118696057 -0.3812413346614633
-0.8856100579119673 0.3363605981376012 -0.3202442401444191
-0.9235383242390637 0.2729231955237633 -0.2694251157683691
-0.9567935425716197 0.1780345944947424 -0.2298908437853542
-0.9711315201913396 0.1204225757473812 -0.205917395431332
-0.9797795645226247 0.06377827807653412 -0.1896426539295616
-0.9832674055828983 0.003210405253177963 -0.182139788119966
-0.9810892127373062 -0.05900596184256632 -0.1843427598728135
-0.9732625921379642 -0.1193990229735739 -0.1962238519085952
-0.9602872659769888 -0.17566583553456 -0.2167714949627477
-0.9413009582015307 -0.2325857460500571 -0.2446556290446185
-0.9009840123977604 -0.3260418170755805 -0.2862246371675325
-0.8561973040248375 -0.3885379785445239 -0.3405354839207428
-0.8113295687321574 -0.4214332704344715 -0.4051398887690477
-0.7773385782902258 -0.4086067589260113 -0.4783150125824094
0 0 0
0 0 0
0 0 0
0 0 0
0 0 0
0 0 0
0 0 0
0 0 0
0 0 0
0 0 0
0 0 0
0 0 0
0 0 0
0 0 0
0 0 0
0 0 0
0 0 0
0 0 0
0 0 0
0 0 0
0 0 0
0 0 0
-0.7585202445215469 0.473954621335365 -0.4472293098241915
-0.7978275335969616 0.4856142122483079 -0.3572814905603758
-0.8554855312675922 0.4363960620572793 -0.2787525476344645
-0.8913395687042098 0.4006633714853585 -0.2120911030952931
-0.923146556023716 0.3525250703987764 -0.153383541626503
-0.9515987396375851 0.2890784113314182 -0.1043719829372922
-0.9746119658762532 0.2135334515228459 -0.06734226794194763
-0.9885997314693056 0.1441759416878385 -0.04340355719570773
-0.9966447210729891 0.076683841027209 -0.02861622761051739
-0.9997153323975075 0.008578928618130354 -0.02226333652230739
-0.9979009804524641 -0.05994213760257375 -0.02450659812467404
-0.9911695290817641 -0.1278155568076269 -0.03530082233871817
-0.9793227995882718 -0.1948551101278678 -0.05439062661567264
-0.9611234994882477 -0.2635386946895256 -0.0823952373186988
-0.932997938439811 -0.3381486688174448 -0.1231678718012628
-0.8991777962946532 -0.4005347748009958 -0.1762134638040064
-0.8619714313213599 -0.4472533166137404 -0.238683309772206
-0.8206521210261222 -0.4811528390794397 -0.3082564544354605
-0.7560822896778282 -0.5277844953338974 -0.3870182136807975
-0.7116375377247638 -0.5132991164103871 -0.4796832621567602
0 0 0
0 0 0
0 0 0
0 0 0
0 0 0
0 0 0
0 0 0
0 0 0
0 0 0
0 0 0
0 0 0
0 0 0
0 0 0
0 0 0
0 0 0
0 0 0
0 0 0
0 0 0
0 0 0
-0.7351439066027418 0.5572325705565454 -0.3860768044001133
-0.7878353229567661 0.5447111092960351 -0.2874113973228803
-0.8288334369403569 0.5223599332026343 -0.2004376062373878
-0.8687485282856845 0.4794339925167713 -0.1241734328303967
-0.90043896076009 0.4308146518117186 -0.06007007349451358
-0.9273771901767113 0.3740868320397299 -0.005530753513433786
-0.9504996266951234 0.3082206050387833 0.03937662100735513
-0.9691291511040221 0.2353327353304615 0.07353361246586565
-0.9821409598074494 0.1614030633891796 0.09668601862260098
-0.9900164584669938 0.08731175286449175 0.1106529248425032
-0.9931213485429353 0.01286189610588515 0.1163810925228939
-0.9915484905724703 -0.0617005295554655 0.1141255251730767
-0.9852635955862041 -0.1358508905060744 0.1039239277608908
-0.9740867140005758 -0.2093564306196173 0.08558597178143845
-0.9575212341044558 -0.2824296393258697 0.05819437317592414
-0.9349579311989548 -0.3541998333247581 0.01990339068810933
-0.907654664443449 -0.4187065928826335 -0.02911699144255893
-0.8762785016737021 -0.4737966652231319 -0.08747975496039397
-0.8396922726658825 -0.5205384414969403 -0.1547792561977896
-0.7940102160571145 -0.5613492134059757 -0.2333127459129188
-0.747105845420409 -0.5812949479984804 -0.322380271062141
-0.6884100210855066 -0.5901298485448929 -0.4217089099431425
0 0 0
0 0 0
0 0 0
0 0 0
0 0 0
0 0 0
0 0 0
0 0 0
0 0 0
0 0 0
0 0 0
0 0 0
0 0 0
0 0 0
0 0 0
0 0 0
-0.6027120675146085 0.6552231346269651 -0.4554347456243097
-0.6549873198750031 0.6766461566412205 -0.3363652620376021
-0.7364446779325788 0.6354203964411475 -0.2321425340848905
-0.7871468270985146 0.6006962274950348 -0.1398710651349092
-0.8251844514597273 0.5617779131932732 -0.05895928525109285
-0.8579677541759196 0.5135758096238133 0.01145515445434233
-0.885874008988854 0.4584286658133849 0.07120673113249219
-0.9099894824393987 0.3964172848983855 0.1215420835902813
-0.9307074387309177 0.3275412564367828 0.1627894002161945
-0.9476836100165502 0.253052660453575 0.1945767877814994
-0.9603003271861552 0.1754924133802723 0.2168540856247129
-0.9683160081041244 0.09630888581892473 0.2304098673269231
-0.9716420718969259 0.01627019002944472 0.2358960894891104
-0.9702254274090717 -0.06394364580186818 0.2336104239336272
-0.9640442500911703 -0.1436178286115507 0.2235902573258857
-0.9531038335821085 -0.2220835112485185 0.2056015477631851
-0.9374394185817608 -0.2985915702965387 0.1790262847654968
-0.9172531340044792 -0.3717191999627988 0.1430787354500216
-0.8931670015059803 -0.4389578935651859 0.09781960487361611
-0.8654472020290919 -0.4990876553648381 0.04373388574600085
-0.8335063471227522 -0.5521701496743793 -0.01937253506021239
-0.795984679261453 -0.5981813041535389 -0.09266886069339944
-0.7523873339513999 -0.634773233882703 -0.1760006853838912
-0.6947585482758837 -0.6668029567801378 -0.2696004013848123
-0.6039729584805102 -0.7045698504448472 -0.3725560243351661
-0.5446923392711167 -0.6790474250911787 -0.4921431194443323
0 0 0
0 0 0
0 0 0
0 0 0
0 0 0
0 0 0
0 0 0
0 0 0
0 0 0
0 0 0
0 0 0
0 0 0
0 0 0
-0.5582577559807844 0.700368399629675 -0.444783523399267
-0.6219585125735529 0.7143484772188458 -0.3207395543621172
-0.6730945775651931 0.7103563229200256 -0.2057609878958455
-0.7252315091753376 0.6808082552948624 -0.1026614709695282
-0.7666021467591253 0.6419654535204118 -0.01419524817085291
-0.8002889339190395 0.5964253038798835 0.06176146969199468
-0.8294841993213512 0.5438595160345232 0.1271722843032654
-0.8553005066023289 0.4847290904748267 0.1830266435611117
-0.8782328068294304 0.4191614582241228 0.230240763002399
-0.8982848624143865 0.3473321526019772 0.2691554972985745
-0.9150444079914207 0.2700329058593789 0.2996263692614016
-0.927902137908592 0.1887056971285057 0.3215397056910831
-0.9363378098192039 0.1047322810415326 0.3351158832565436
-0.9399964375974282 0.01930076382512824 0.3406378983905202
-0.9386931803610131 -0.06647311987389513 0.3382845510483101
-0.9324162511878419 -0.1514830116373392 0.3281049096037616
-0.9213279630105896 -0.2346269832455489 0.3100080052318807
-0.9057645561154943 -0.3147443970425372 0.2837719743301487
-0.8862332283354316 -0.3904948869063535 0.249207560668115
-0.8633249535052206 -0.4604891126639213 0.20644563878465
-0.8373781625076102 -0.5239931641076619 0.155656599358391
-0.8082364722449452 -0.580894965289678 0.09651344069169338
-0.7751781403582589 -0.6311180649825535 0.0280862735760371
-0.7368141131187886 -0.6741987574344726 -0.05060630576109925
-0.6895161582280201 -0.7103500964876783 -0.1413159862238436
-0.6299097237761595 -0.736757564023891 -0.2457682480423872
-0.5710460652667346 -0.7370814833524636 -0.3614101247091895
-0.4998331429388033 -0.7184754663437211 -0.4836939460879058
0 0 0
0 0 0
0 0 0
0 0 0
0 0 0
0 0 0
0 0 0
0 0 0
0 0 0
0 0 0
0 0 0
-0.4946185060791335 0.742073316433454 -0.452415435724181
-0.563395462476921 0.7616711757524884 -0.3200665132253568
-0.6157706911102077 0.7626410135830279 -0.1980028797030703
-0.6586295643467759 0.7472540012000424 -0.08842259133786491
-0.697551780106793 0.7164859831633305 0.008327664757893609
-0.7314737123951655 0.6756800149045834 0.09166638169676128
-0.7613410584751612 0.627446298009702 0.1633123871414563
-0.7883970305692947 0.5724656990948191 0.2251957938092939
-0.8132354975734685 0.5109145255696992 0.2785935624674802
-0.8359414366250887 0.4427787622485098 0.3242666838188283
-0.8562150638298456 0.3681679072237325 0.3624198622610934
-0.8734688213149064 0.2876309849279262 0.3928366514216037
-0.8869696447676769 0.2022291562608123 0.4151966011647261
-0.8960202957068875 0.1133059960790345 0.4293126843384426
-0.9000921466309959 0.0223257839656221 0.4351272077720784
-0.8988988330862487 -0.06918691895527354 0.4326592864156004
-0.8924303698160507 -0.1596919648563927 0.4219792783896991
-0.8809562001872906 -0.2476868537274082 0.4031964730031593
-0.8649952831911562 -0.3317502335515852 0.3764637334399152
-0.8452404369536276 -0.4105989935183079 0.3420191080337365
-0.8224123290407899 -0.483242268730664 0.3001913902058883
-0.7970524548500444 -0.5492002692650236 0.2511701583722534
-0.7693618364955325 -0.6084224547312279 0.1946907319906318
-0.7390928124739699 -0.6609577663499953 0.1299101445266765
-0.7054156584064597 -0.7066183214575978 0.05549141064549878
-0.6667657611360641 -0.7446449247849172 -0.03045251662359026
-0.6219291025768559 -0.7723018171130163 -0.1294376091090972
-0.5720610212495918 -0.7841554156098235 -0.2405129354871759
-0.5115686458105054 -0.779084082353619 -0.3623886218506656
-0.4345445211734207 -0.7544608712942007 -0.4918941479669762
0 0 0
0 0 0
0 0 0
0 0 0
0 0 0
0 0 0
0 0 0
0 0 0
0 0 0
-0.4324672735789657 0.7619706170467158 -0.482050657131201
-0.4978694704785005 0.7977019567508983 -0.340290432661932
-0.5491093121126179 0.8093192095138927 -0.2085218944451994
-0.5902234988201057 0.8020937468130075 -0.091004630453748
-0.6249357697231684 0.7805809897394527 0.01219024929552074
-0.6562303238023172 0.7475845262659412 0.1023676619349771
-0.6850200398076723 0.7057539427486967 0.1807177837307774
-0.7119553143541172 0.6566018753025326 0.2489851556059664
-0.7375149630929834 0.6005764793830941 0.3088358328072746
-0.7618214723688448 0.5376134726630977 0.3613859408567103
-0.7846362509204139 0.4675205412378272 0.4071492321769081
-0.8054158763699952 0.3902820035609874 0.4460775983924469
-0.8233888649452056 0.3063055180394583 0.4777109028511118
-0.8376692510612856 0.2165279709076944 0.5014238363311231
-0.8474068399764912 0.1223501904586579 0.5166546994422744
-0.851934849862611 0.02550855956862376 0.5230261226538344
-0.8508807625457239 -0.07206121676672847 0.5203932253284103
-0.8442268546985282 -0.1683674911023263 0.5088549948126065
-0.8323152443276084 -0.2615101006409367 0.4887369449127416
-0.8157948458410847 -0.3498183073496345 0.4605495861925802
-0.795510925295868 -0.4319764965355321 0.4249219624540472
-0.772348601073139 -0.5071378391385405 0.3824772549240757
-0.7470662574003688 -0.5749739427374236 0.3336120085170607
-0.7201645588678756 -0.6355566541820052 0.2782638091373233
-0.6917920782893957 -0.6891014346927332 0.2157844598678386
-0.6616700796895919 -0.735653192555878 0.1449382141669789
-0.6290833680176353 -0.7746978316606433 0.06401082489614841
-0.5930944574395957 -0.8046229235850484 -0.02865162117368888
-0.5525134555651794 -0.8226729335514853 -0.1339332886970878
-0.5040641785987958 -0.8259245488862239 -0.2525231541871127
-0.4442127389807339 -0.8096803169030079 -0.3835268268936066
-0.3704170382695315 -0.7684675943769275 -0.5217746392382118
0 0 0
0 0 0
0 0 0
0 0 0
0 0 0
0 0 0
0 0 0
0 0 0
-0.4499929989690293 0.8073818187782948 -0.3816292698223124
-0.4831780194903626 0.8425825556135015 -0.2378941749122722
-0.5186443166625948 0.8478074474881242 -0.1105920647119905
-0.550119073209656 0.8350861217234565 0.0004178466525605359
-0.5781360320558236 0.810156828973878 0.09697752783886415
-0.6041998935969655 0.7759064773130231 0.1814156196172482
-0.6292505162643878 0.7339107770751691 0.2557709113130778
-0.65378603329896 0.6848163341146342 0.3218546429570413
-0.6779776408870791 0.6285924481878066 0.3810746023266967
-0.7016819479018381 0.5648628122220459 0.434249291717653
-0.7244523405890273 0.4932162581676169 0.4815667439662067
-0.7455726768178679 0.4134834388656856 0.5226402485136843
-0.764119215992081 0.3259675741778323 0.5566569539099162
-0.7790635258615199 0.2315810778383241 0.5826064083576975
-0.7894168390102583 0.1318529555313653 0.5995296926797664
-0.79438980804668 0.02882544924748619 0.6067239292686903
-0.7935292474218482 -0.07512894055199676 0.603876622976622
-0.7868000216269458 -0.177541052979726 0.5911217306737142
-0.7745933717355831 -0.2760930338585471 0.5690147143247558
-0.757658557720297 -0.3688397345738216 0.5384336171829462
-0.7369715086464169 -0.4543709646567017 0.5004198456499922
-0.7135704326423363 -0.5318912105914549 0.455970369381811
-0.6883983901073377 -0.6011917546895015 0.4058030687303676
-0.6621821994507053 -0.662500948124967 0.3501531500131704
-0.6353485229979687 -0.7162474838956306 0.2886551508937228
-0.607964588653283 -0.7627822226064268 0.2203232620928698
-0.5797009218457438 -0.8020695932752548 0.1436356806453794
-0.5498040256259921 -0.8333621124714048 0.05677255413182053
-0.516985122365995 -0.8549560714251125 -0.04214853716980627
-0.4793529531082112 -0.8638105733926346 -0.1550872001214942
-0.4363262826650783 -0.8540097966757385 -0.2833489760658002
-0.3956010602110394 -0.8132257458054606 -0.4268063817693608
0 0 0
0 0 0
0 0 0
0 0 0
0 0 0
0 0 0
0 0 0
-0.3151134939402198 0.8502090441892587 -0.421720366019444
-0.3983391214132917 0.8744079984482962 -0.2770137119373891
-0.4413837398645761 0.8857020790082371 -0.1439174118154097
-0.4724789107345567 0.8809659023888108 -0.02574408163743023
-0.498233921448101 0.8635727245057718 0.07749263841246525
-0.5213475788371607 0.8366930874062046 0.167753925519802
-0.5434043156685211 0.8021416745322103 0.2475489521114705
-0.5653125134139894 0.7606476584024762 0.3191189463889404
-0.5875013847818156 0.7121915462739308 0.3842204110863919
-0.610036056557052 0.6562769028528914 0.4440232386735376
-0.6326672570055438 0.5921938194106761 0.4990376961361498
-0.6548530878980339 0.5192823668031253 0.5491022280029049
-0.6757852934157674 0.4371938845269795 0.593443969162359
-0.6944431480425779 0.3461302751636985 0.6308268754197274
-0.7096924499002449 0.2470153019649971 0.6597878955768508
-0.7204323875607177 0.1415478893436634 0.6789266307753125
-0.7257687866155 0.03211234920842635 0.6871888135025048
-0.7251729536997986 -0.0784479759548667 0.6840834030225363
-0.718582586758324 -0.1871542027872499 0.6697853166401786
-0.7064151939937152 -0.2912437069014281 0.6451005168848776
-0.6894898311326497 -0.3884720387229379 0.6113045459467106
-0.6688799575652259 -0.4773050015167902 0.5698943216900816
-0.6457383426981149 -0.5569733924923422 0.5223051146839967
-0.6211365705468765 -0.6273934426880471 0.4696454288091226
-0.5959444179155029 -0.6889821776186367 0.4124970420248287
-0.5707491481071536 -0.7424160083732717 0.3508046186213293
-0.5457984798934934 -0.7883736602889821 0.2838502970026697
-0.5209454716822612 -0.827278600247393 0.2102996269765115
-0.4955668070028906 -0.8590399401250511 0.1283118118760223
-0.4684249800262976 -0.8827821892051053 0.03568815643324492
-0.4374850511538318 -0.8965087260146793 -0.06984936790311989
-0.3996039676777002 -0.8968347243715196 -0.189747585433121
-0.3480076925655355 -0.8801054334447318 -0.322962957529609
-0.2547321302625493 -0.8488705059403834 -0.4631742716909272
0 0 0
0 0 0
0 0 0
0 0 0
0 0 0
-0.2254130847446812 0.8410240260297918 -0.4918002936828389
-0.2991566678929666 0.8917262733365272 -0.3396020339993943
-0.3542716911009144 0.9145382762600951 -0.1952211826101655
-0.390438301712167 0.9181644360539122 -0.06732013756610879
-0.4165179461264978 0.9080632472622269 0.04397657929106567
-0.4376856672514608 0.8880346413345581 0.1408038794651828
-0.4567154052248386 0.8604215267834051 0.2260217575323776
-0.4751736336803293 0.8262812181062211 0.3024390293264598
-0.4939351361613863 0.7857240240663573 0.3723786235408826
-0.5134117720871776 0.7382311423154426 0.4375192942007706
-0.5336607629363957 0.6829113616576608 0.4988369094413757
-0.5544305430085851 0.6187358729254652 0.5565722707199557
-0.5751778273082859 0.5447835413253511 0.6102305794320116
-0.5950856253043211 0.4605062160240062 0.6586403598014747
-0.6131088819054592 0.3659940418087472 0.7001041781686025
-0.6280684958279162 0.2621890937248548 0.7326573849216274
-0.6387995427717694 0.1509790916285736 0.7544139831986073
-0.6443351009247716 0.03511521448897666 0.7639366462133212
-0.6440831100579364 -0.08206088389500583 0.760541227464012
-0.6379443001295168 -0.1970349853115484 0.7444489804516751
-0.6263327926004407 -0.3065809553684111 0.7167393882846994
-0.6100932914332481 -0.4081444327803975 0.6791202380569387
-0.590343344777587 -0.5000637036380784 0.6335858486271445
-0.5682888375002503 -0.5816021974034764 0.5820538472925518
-0.5450582786480803 -0.6528212440114872 0.5260569325125229
-0.5215808418181714 -0.7143528640779946 0.4665333975524296
-0.498507805777299 -0.767136506608365 0.4037221170654591
-0.4761593631445661 -0.8121633945832571 0.3371392611203287
-0.4544707781853743 -0.8502410006045132 0.265606010223067
-0.4329087863694934 -0.8817631248741 0.1873066317468605
-0.4103283700372266 -0.9064513738714206 0.09988260884261289
-0.3847271002694718 -0.923030136972532 0.0006515817001009101
-0.3527707462186925 -0.9288803424454571 -0.1128455140035105
-0.3087687280046604 -0.9198720702831034 -0.2418620410884285
-0.2438544800552797 -0.890280262480075 -0.3846245530324051
-0.1605324905472947 -0.8319599453506763 -0.5311044801268222
0 0 0
0 0 0
0 0 0
0 0 0
-0.2398463845622099 0.8714447132783656 -0.4278525721689926
-0.2741544562063911 0.9229995190469242 -0.270020780647201
-0.3082403202433861 0.9425929663984149 -0.1284772535217447
-0.3344444035493739 0.9423981296615483 -0.005718928651299031
-0.3544687808603644 0.9297135145886002 0.09992329151243461
-0.3709686983843202 0.9086358167703329 0.1917372611183146
-0.3859195938711009 0.8811526160909836 0.2731961460606273
-0.4006030415074241 0.8478611840503236 0.3473450960007695
-0.4157926581586029 0.8084543508066545 0.4165549520569802
-0.4318860990564147 0.7620525257107922 0.4824420643969954
-0.4489733112561775 0.7074484508505108 0.5458384881710664
-0.4668616972346548 0.6433286750550496 0.6067687957592178
-0.4850798391367833 0.5685173610530512 0.6644437973555827
-0.5028833946091933 0.4822595529017732 0.7173102641544422
-0.5192883359530518 0.3845242270946707 0.7632042602870847
-0.5331536117936222 0.2762672574485358 0.7996396867922948
-0.5433223698577132 0.1595664607482697 0.8242204480698526
-0.5488069112124981 0.03754519519052103 0.8351055816622843
-0.5489751753464865 -0.08595008648894749 0.8314077456253557
-0.5436815891892194 -0.206866468183053 0.8133981767364334
-0.5332970274216308 -0.3215178371881824 0.7824452446740828
-0.5186290797117046 -0.4270506379202209 0.7407102202138989
-0.5007632736051579 -0.5216913111518885 0.6907056679055622
-0.4808769835095228 -0.6047546464123799 0.6348457642399603
-0.4600736213202248 -0.6764663163497802 0.5750874592698516
-0.4392627169420165 -0.7376861647904358 0.5127059466999533
-0.4190860224378091 -0.7896121693388157 0.4481958587819669
-0.3998721203263605 -0.8335131191824381 0.3812586622444963
-0.3815947180510949 -0.8704994784097685 0.3108313517710623
-0.3638095575371836 -0.9013090875258933 0.2351266352156635
-0.3455486500703003 -0.9260599410899801 0.1516875602777474
-0.3251602061794009 -0.9439081352194185 0.05751758499771278
-0.300135017079676 -0.9525549064532364 -0.05057787771791267
-0.2672529521505875 -0.9475590809522615 -0.1752359771043061
-0.2246809195039642 -0.9214119663206735 -0.3170464835507923
-0.1817865035764047 -0.8622587987634317 -0.4727191883904322
0 0 0
0 0 0
0 0 0
-0.1140325083624059 0.8496043240561862 -0.5149457054696236
-0.1917770260134189 0.913427235832037 -0.358987823099464
-0.2298297430159635 0.9507406311512699 -0.2080157241731996
-0.2553944273374489 0.9640822372051681 -0.07293234118314124
-0.2739641644397618 0.9607403337911177 0.04383660148499677
-0.2881187832700857 0.9466632466245163 0.1442784260286168
-0.2997681358867726 0.9253798091633917 0.2319725705761215
-0.3103207703573995 0.8984681011657191 0.3105738087354709
-0.3207595042834624 0.8661848599933392 0.3831933307485222
-0.3317311048196698 0.8279341580679971 0.4521940999165708
-0.3436112363882465 0.7825795955414797 0.519134370726765
-0.3565358873645504 0.7286710831454524 0.5847397828169428
-0.3704060424418479 0.6646569709357772 0.6488686112835517
-0.3848778169809823 0.5891329637849012 0.7104867465181679
-0.3993551269606447 0.5011492586196591 0.7677010506409463
-0.4130064436607576 0.400555776722051 0.817912432494633
-0.424827408144981 0.2883167036372033 0.8581346932111499
-0.4337618519156362 0.1666870184170617 0.8854750666811276
-0.4388722579226115 0.03914170327193534 0.8976965346323221
-0.4395219308321807 -0.0899956541355805 0.8937120646798162
-0.4355112607678641 -0.2161671922750318 0.8738430561195267
-0.4271190267259498 -0.335264091523186 0.8397424164253046
-0.4150365090854687 -0.4441692440622935 0.794014092290104
-0.4002227011774182 -0.5410258478404699 0.7396707520449562
-0.3837306508335652 -0.625218446993841 0.6795974405112616
-0.3665516692840436 -0.6971437610399576 0.6161415829078112
-0.3495032824092469 -0.7578824305076669 0.5508735581900379
-0.3331624459427492 -0.8088667379174063 0.4844970432358676
-0.3178287725388936 -0.8515968652693052 0.4168544715004414
-0.3034961628001424 -0.8874128087315858 0.3469705838608037
-0.2898123703716389 -0.9172932641022304 0.2730967916549865
-0.2760115092645656 -0.9416280557681417 0.1927543808679989
-0.2608160633512649 -0.9598964245864673 0.1028291552239194
-0.2423360247797902 -0.9701923676839703 -0.0001441585938961107
-0.2180542580835916 -0.9686257588025365 -0.1192328810178811
-0.18489100948917 -0.9489804888786157 -0.2554434307978555
-0.1374710897860352 -0.904022866059831 -0.404776922654946
-0.04977118444228363 -0.8316781488156831 -0.5530228620787119
0 0 0
0 0 0
-0.1333987647820258 0.8705035472778138 -0.4737386871803611
-0.1602188578702353 0.9377272799793918 -0.308216589373785
-0.1824986045029381 0.970345540516578 -0.1585048622410986
-0.1986554032707649 0.9796584588008366 -0.02837842228346754
-0.2102121605688843 0.9741275349083085 0.0829842953963188
-0.2186875779215934 0.9592767638496043 0.1787843214630888
-0.225334591733165 0.9381248403502755 0.2629564710864092
-0.2311291771610014 0.9118727103133185 0.3392159542986162
-0.2368032953543779 0.8805089334469477 0.4106436623514667
-0.2428850523523307 0.8432319484634627 0.4795484672421729
-0.2497267838503659 0.7987260635944302 0.5474241580006298
-0.2575151403414356 0.7453653494353435 0.6149117402977916
-0.2662645297935864 0.6814163022652975 0.6817441038842131
-0.2757996408390337 0.6052923399323457 0.7466965523773934
-0.2857377956462472 0.5158836158074002 0.8076001529721906
-0.2954875319560196 0.4129409179256163 0.8614911008021435
-0.304283127677614 0.2974365276223582 0.9049548553638919
-0.3112706266351947 0.1717774551635814 0.9346673755361617
-0.3156446233305348 0.0397393908842309 0.9480449633718195
-0.3168078589086651 -0.09394836471051171 0.9438254527728777
-0.3145021818619148 -0.2243043299888389 0.9223751650778291
-0.3088626212287845 -0.3468745443981563 0.8855969352116432
-0.3003783728311967 -0.4583388039093526 0.8364797510796218
-0.2897807704918982 -0.5567921828075929 0.7784661651076925
-0.277899712337818 -0.6416977635505794 0.7148396534445626
-0.2655302206736611 -0.7136097829924791 0.6482706067117522
-0.2533342459088778 -0.7737991588756599 0.5805657771287428
-0.2417815847376347 -0.8238889974869985 0.5125900751103418
-0.2311185950250431 -0.8655563026488464 0.4442932387269786
-0.2213475268918075 -0.9003052149800508 0.3747743217172231
-0.2122003278809509 -0.9292800498924205 0.3023402218017919
-0.2030956445386187 -0.9530631825382422 0.224550059584761
-0.1930767444612194 -0.9713900840447827 0.1382847618782577
-0.1807475776716453 -0.9827178779009663 0.03994853714034578
-0.1642641908801435 -0.9836365486842736 -0.07400280864252293
-0.1415087619631427 -0.9682742198035514 -0.2059619031556126
-0.1108376450130489 -0.9280969811601927 -0.3554588724582602
-0.07543366034263808 -0.8523822758342532 -0.5174497258004201
0 0 0
0 0 0
-0.1088676441025667 0.8973707446783824 -0.4276372091655749
-0.1190079503956632 0.9574807750426588 -0.262807292833232
-0.1300789395289842 0.9845210788645985 -0.1174636742244232
-0.1384627741095507 0.9903420685966908 0.007116695406891411
-0.143912956395902 0.9830873275437425 0.1132623830064196
-0.1470813618871129 0.9676895584135696 0.2048023230404927
-0.1487316851262483 0.9466749927313141 0.2858064799417124
-0.1495375374086141 0.9209152163665608 0.3599356736561372
-0.1500503102732705 0.8901886176536548 0.4301733713129745
-0.150708477256201 0.8535494468264849 0.498738705842366
-0.151850037455532 0.8095653911372475 0.5670497717110453
-0.1537170171511874 0.7564986831579135 0.6356735176318767
-0.1564491274771852 0.6924993124794702 0.7042502202534894
-0.1600671399334513 0.6158627686016471 0.7714217789016837
-0.1644503656413762 0.5253761645716407 0.8348269059753701
-0.1693181480080784 0.4207299873969438 0.8912449957559827
-0.1742310890474335 0.3029118260861393 0.9369567509904101
-0.1786295763125578 0.1744448359522332 0.9683287012559288
-0.1819185959293252 0.03932344596581166 0.9825269925312364
-0.1835857805816623 -0.0974350304598644 0.978162908726101
-0.18331494750731 -0.2305563113929232 0.955635609056758
-0.181053453691619 -0.3553579651942401 0.9170280058315262
-0.1770126087353467 -0.4683973348358544 0.8656041087398875
-0.1716066624850202 -0.5677567315834355 0.8051108290989797
-0.165356337080395 -0.6529714899005004 0.7391113009313787
-0.1587892644081736 -0.724716868303069 0.6705008801677316
-0.1523604579283165 -0.7844003225364143 0.6012507171427259
-0.1463999141762408 -0.8337750325207561 0.5323403613048714
-0.1410815766794508 -0.8746329886264633 0.4638028934019068
-0.1364020709342159 -0.9085817105944759 0.3948084981583764
-0.132157495577233 -0.9368714799985107 0.3237378975778916
-0.1279099016155271 -0.9602187124815779 0.2482319102551619
-0.1229425309858545 -0.9785598620130781 0.1652444568865696
-0.1162215246952789 -0.990669553717845 0.07117859603834377
-0.1064326982231715 -0.9936030690502312 -0.03774946255109009
-0.09230386294682007 -0.9820112840533222 -0.1647235103955699
-0.07382552196593202 -0.9475449769105743 -0.3109795958547704
-0.0559963372355219 -0.8787464298385163 -0.4739927449468682
0 0 0
0 0 0
-0.05548318781554674 0.9218522328289898 -0.3835493145581546
-0.06410856119594799 0.9726149032656121 -0.2234062271446544
-0.07115676572667302 0.9938908071607835 -0.08436692558464497
-0.07489575188223954 0.9965999411656311 0.03433924312873245
-0.07566400726700555 0.9878749330763104 0.1355657574897638
-0.07415253998007421 0.9719411196649947 0.2232305102777383
-0.07101537666829361 0.950875263644108 0.3013188498358637
-0.06680429172287879 0.9252813256963923 0.3733519183356781
-0.06197899805419895 0.8947834870538443 0.4421776962895798
-0.05692981787580399 0.8583447279571947 0.5099052106271486
-0.05199756019150217 0.8144720189519082 0.5778681372757395
-0.04748654252911125 0.7613790973113843 0.6465654633955729
-0.04366826301277145 0.6971715799036723 0.7155731066635084
-0.04077302338114799 0.6201046111842317 0.7834588896377479
-0.03896796665709325 0.5289356407393913 0.847766822617057
-0.03832422738025129 0.4233478033065013 0.9051562798938458
-0.03878351773179926 0.3043564775639638 0.9517683401527933
-0.04014234824679093 0.174555781907555 0.9838286796388257
-0.04207268329686133 0.03805092268770454 0.9983897117873439
-0.0441840195167984 -0.1000088687536059 0.9940050294590882
-0.04610922403172165 -0.2342270578178839 0.971087856398776
-0.04758426372621723 -0.3598381632312007 0.9318005334448082
-0.04849595430329214 -0.4733693387886795 0.8795280618098441
-0.04888410092818449 -0.5729209527353599 0.8181515303372902
-0.04890386186178566 -0.6580788724238628 0.7513591750716433
-0.04876822430736685 -0.7295831510865801 0.6821510726726758
-0.04869047169520344 -0.7889059021182194 0.6125820072195529
-0.0488372902411109 -0.8378570611582877 0.5437007119262418
-0.04929333774238374 -0.8782766373479388 0.4756052093312391
-0.05003206223378422 -0.9118169648114054 0.4075372564941156
-0.05088539959306025 -0.9397820724326584 0.3379649870066894
-0.05150548617388623 -0.9629717528748015 0.2646367095835781
-0.05131488806325703 -0.9814682245044876 0.1846263972216965
-0.04945224921471333 -0.9943017180107668 0.09443817347049351
-0.044751441218677 -0.9989510495619739 -0.009700983861523165
-0.0358865178483081 -0.9907095226327201 -0.1311746911624746
-0.02211863106908575 -0.9620899878239374 -0.2718338122613986
-0.006215564462353501 -0.9023370192159964 -0.4309863924891414
0 0 0
0.1123333046845015 0.8618189785480869 -0.4946203360891973
0.02873102678298647 0.9387650266708832 -0.3433580533489938
0.001424914536289535 0.9810924187627523 -0.1935345846736851
-0.007824959552977956 0.9981241703452769 -0.06071993561052673
-0.009356483292549433 0.9985468290701692 0.05307246342790146
-0.006582220407575336 0.988625251420697 0.1502557374208019
-0.0009731681698921009 0.9720824790011259 0.2346373946384897
0.006648760762940168 0.9506845700773476 0.3100881200516483
0.01572547233933896 0.9248547915227604 0.3799951632811863
0.02582242586569095 0.8941223987047148 0.4470775530676279
0.03656235990968523 0.857409036130247 0.5133351133519261