# OOMMF: rectangular mesh v1.0
# Segment count: 1
# Begin: Segment
# Begin: Header
# Title: 
# meshunit: m
# valueunit: (none)
# valuemultiplier: 1
# xmin: 0
# ymin: 0
# zmin: 0
# xmax: 9.357999999999999e-08
# ymax: 9.357999999999999e-08
# zmax: 2.3395e-08
# ValueRangeMaxMag: 1
# ValueRangeMinMag: 0
# meshtype: rectangular
# xbase: 1.16975e-09
# ybase: 1.16975e-09
# zbase: 1.16975e-09
# xstepsize: 2.3395e-09
# ystepsize: 2.3395e-09
# zstepsize: 2.3395e-09
# xnodes: 40
# ynodes: 40
# znodes: 10
# End: Header
# Begin: Data Text
0 0 0
0 0 0
0 0 0
0 0 0
0 0 0
0 0 0
0 0 0
0 0 0
0 0 0
0 0 0
0 0 0
0 0 0
0 0 0
0 0 0
0 0 0
0 0 0
-0.835819701864869 0.02962062395751511 -0.548204382152212
-0.84565542628548 0.04829131936758378 -0.5315400723065578
-0.8561922500225692 0.02913487231068387 -0.5158352355323645
-0.8617313100954708 -0.005737867489070233 -0.5073324610921531
-0.8604748093815933 -0.04512488853200378 -0.507490735732865
-0.8524970144242739 -0.08036718932218351 -0.5165171393846977
-0.8398019448812757 -0.1001561848489446 -0.5335742047832993
-0.828539865853702 -0.08179886162014408 -0.5539229521592127
0 0 0
0 0 0
0 0 0
0 0 0
0 0 0
0 0 0
0 0 0
0 0 0
0 0 0
0 0 0
0 0 0
0 0 0
0 0 0
0 0 0
0 0 0
0 0 0
0 0 0
0 0 0
0 0 0
0 0 0
0 0 0
0 0 0
0 0 0
0 0 0
0 0 0
0 0 0
0 0 0
0 0 0
-0.7799824608890965 0.2404572557215803 -0.5777609097855574
-0.8080263325117982 0.2702253849055087 -0.5235185644465743
-0.845215777831594 0.2530283623214208 -0.4707302165417818
-0.8820776403497786 0.2048577850955057 -0.4242314513101659
-0.9143934975902785 0.1230002593500003 -0.3856883038989509
-0.9277369602854781 0.08234450516149117 -0.3640377933538905
-0.936098768174904 0.04336974051137348 -0.3490532363829374
-0.9399845966181239 0.0004499400782093997 -0.3412165817696851
-0.9388700620177448 -0.04431272243980783 -0.3414079513965188
-0.9327721808557585 -0.08752150451318938 -0.3496799177381215
-0.9222149051050273 -0.1270336064861986 -0.3652151853705355
-0.9064800482169981 -0.1682749232834738 -0.3872692504943415
-0.8704980911563115 -0.2499153841106888 -0.4239992618838201
-0.8300653748420593 -0.2993581194097211 -0.4705063122124784
-0.7897402616083542 -0.3182509430237733 -0.5244298394058511
-0.759575538484153 -0.2900007050300885 -0.5821894815423585
0 0 0
0 0 0
0 0 0
0 0 0
0 0 0
0 0 0
0 0 0
0 0 0
0 0 0
0 0 0
0 0 0
0 0 0
0 0 0
0 0 0
0 0 0
0 0 0
0 0 0
0 0 0
0 0 0
0 0 0
0 0 0
0 0 0
-0.7526976060558952 0.3343100223474764 -0.5671711582897649
-0.7906029080093004 0.3628495468827928 -0.4932415718227621
-0.8461362956364384 0.3257458960123145 -0.4218328821201346
-0.8803659097973394 0.3046740358343928 -0.3634963504013286
-0.9106856725380689 0.2715403165889857 -0.3113156955578021
-0.937671461428124 0.2227873126889296 -0.2667171605429444
-0.9590867725943993 0.1617420042534398 -0.2323619734262447
-0.9715927478344082 0.1083359795393779 -0.2104063874810529
-0.9788022109987845 0.05771760270382646 -0.1965067685399506
-0.9818347673333544 0.006854624429506181 -0.1896140917215482
-0.9808205239225067 -0.04446019151217799 -0.1897745800234566
-0.9757434488265518 -0.09551132769039551 -0.1969830153969717
-0.9664110904665397 -0.1465006130208096 -0.2111567536400392
-0.9515459916686865 -0.2004159343536645 -0.2332245248604944
-0.9272952485227195 -0.2620235942819773 -0.2673334212303827
-0.8973813256302174 -0.311813785544566 -0.3122161423669839
-0.8642052511770154 -0.3462923331231054 -0.3650080873874268
-0.827176360210615 -0.3688712412884462 -0.4239260271073709
-0.7683792849569078 -0.4068492062719168 -0.4940313733003419
-0.7279126045727146 -0.3802241170154799 -0.5705899236263859
0 0 0
0 0 0
0 0 0
0 0 0
0 0 0
0 0 0
0 0 0
0 0 0
0 0 0
0 0 0
0 0 0
0 0 0
0 0 0
0 0 0
0 0 0
0 0 0
0 0 0
0 0 0
0 0 0
-0.7563708889136032 0.4149085278617566 -0.5057212591058785
-0.8077957778661337 0.414743597690848 -0.4188719726075015
-0.847807021031848 0.405022611202686 -0.3423155554509038
-0.8861035111333175 0.3738703778778867 -0.2739370513505837
-0.9158655277758647 0.3377887725821327 -0.2170001846757104
-0.9407002026008263 0.2943781370795069 -0.1685960890304483
-0.9616040110583389 0.2424613323512684 -0.1285699351752246
-0.9779738000453551 0.1842607353600258 -0.0980572681111886
-0.9889802786018433 0.126191962730381 -0.0774183252135697
-0.9955252291946834 0.06895802265565756 -0.06460889372442835
-0.9982189910744546 0.01192040416025619 -0.05845297103615871
-0.9972595739746642 -0.04517620736247053 -0.05858713514256928
-0.9926265925908281 -0.1023104946947764 -0.06500007966788966
-0.9840710480012248 -0.1597358228574251 -0.07802973395976621
-0.9709134678428181 -0.2180826239129114 -0.09882816961115959
-0.9522071799927162 -0.276660145617318 -0.1294629298190138
-0.9288840149908006 -0.3291678576053052 -0.1697734025520575
-0.9015634726086944 -0.3734105672967655 -0.2185128213374659
-0.869150450054837 -0.4106210612004341 -0.275622639251755
-0.8278544928130425 -0.4432100122738182 -0.3438340060981482
-0.7847780832724552 -0.4548421001666266 -0.4210012160685799
-0.730501156787942 -0.4559373307881908 -0.5084183418457853
0 0 0
0 0 0
0 0 0
0 0 0
0 0 0
0 0 0
0 0 0
0 0 0
0 0 0
0 0 0
0 0 0
0 0 0
0 0 0
0 0 0
0 0 0
0 0 0
-0.650974584320455 0.5041541701332626 -0.567503888362055
-0.7025971460421887 0.5399058431636277 -0.4635287810817612
-0.783026081860663 0.5052901219595358 -0.3627010446304987
-0.8328318515905564 0.478875130938852 -0.2776143295014545
-0.8696878364849324 0.4491572766752918 -0.2046968682706029
-0.9006531069638269 0.410686825957552 -0.1419870131431602
-0.9261829489625174 0.3662704542538432 -0.08961640135476243
-0.9475583496115886 0.3162433273318173 -0.04607962672877178
-0.9653630255412341 0.2606885003445865 -0.01075800659809723
-0.9794721673358276 0.2009259533072807 0.01621834461393149
-0.9895957499660201 0.1395428623455663 0.03504341903405273
-0.9958736610464882 0.07774507098587935 0.04681191270675154
-0.9984994854372879 0.01581677832948402 0.05242715999123657
-0.9975631896699652 -0.04616873599203349 0.05230803410932656
-0.9930502008948635 -0.1081326471694431 0.04646104948017522
-0.984841622728352 -0.1699947788511046 0.03447830194702096
-0.9727208066778041 -0.2314633250271054 0.0154583771295144
-0.9565463710006107 -0.2913449192675679 -0.01171230731051192
-0.9366344953939958 -0.3471052826422973 -0.04726250945353093
-0.9130848574121299 -0.3974862333339682 -0.0909985575415576
-0.8852205128502835 -0.4425023966480403 -0.1434443187784759
-0.8516243163373887 -0.4819382388469362 -0.2060862871711469
-0.8117550428062281 -0.513065885414093 -0.2789572506727708
-0.7583389580657812 -0.5410452248817329 -0.3635823006038385
-0.6734013429084507 -0.5768634847669574 -0.4623409470419175
-0.6179762259504348 -0.5435227692647134 -0.5680566727456636
0 0 0
0 0 0
0 0 0
0 0 0
0 0 0
0 0 0
0 0 0
0 0 0
0 0 0
0 0 0
0 0 0
0 0 0
0 0 0
-0.6294785970062541 0.5499974539810827 -0.5488711110318744
-0.6928535830917077 0.5739611267087321 -0.4364888743418605
-0.7443884599447156 0.5796594590670182 -0.3314826273204464
-0.7963707059950306 0.5572109805755828 -0.2351799773768452
-0.8371360663840411 0.5248766079832332 -0.153973220889442
-0.8695986309747371 0.486213480097487 -0.08599228324886402
-0.8968307443699777 0.4414247547053722 -0.0289620766881976
-0.920004132887106 0.3914763117597226 0.01840360838662195
-0.9398045608523038 0.3368555520262749 0.05740840069433441
-0.9564865371615029 0.2779260336245582 0.08882918474531536
-0.9699410306016023 0.2155273974299721 0.1129705187762006
-0.9799273033040434 0.1509868847153113 0.1301746553029046
-0.9863127591537197 0.08532200884713605 0.141093217189436
-0.9890506560012129 0.01912198685827851 0.1463323254860727
-0.9881230364097086 -0.04724393707126159 0.1462220069841192
-0.9835206065149648 -0.1134562008907876 0.1407654326880874
-0.975246278605542 -0.1791331729017895 0.1296379667851147
-0.9633421259387952 -0.243669974213431 0.1122358768778855
-0.9479491863173979 -0.3060470364570009 0.08790649370819947
-0.9293180719081919 -0.3649613789853767 0.05631263689379507
-0.9075359888426218 -0.419622522714485 0.0171862557346104
-0.8822823935607306 -0.469750246715978 -0.0302073455143828
-0.8527638954812219 -0.5149718706673747 -0.08716484948094479
-0.817665952848976 -0.554435135942885 -0.154996998627619
-0.7737041029401405 -0.58799401210122 -0.2358919303975915
-0.7178078251197691 -0.6121566012714773 -0.3316869332918921
-0.6621004098083652 -0.6088521621154316 -0.4369463262449506
-0.5949696368758706 -0.5867067745288062 -0.5493507913144378
0 0 0
0 0 0
0 0 0
0 0 0
0 0 0
0 0 0
0 0 0
0 0 0
0 0 0
0 0 0
0 0 0
-0.586706774528813 0.5949696368757402 -0.5493507913145714
-0.6554936968746532 0.6229936323500584 -0.4268570573492723
-0.7089253145410744 0.6315981311662577 -0.3138609550583332
-0.752963056511246 0.6227919208563684 -0.2125484858691702
-0.7925379991072585 0.5971978386970618 -0.1234433531083003
-0.8264265666004943 0.5609716684663486 -0.04826921581089953
-0.8554562226755604 0.5176769374184761 0.0143261840937804
-0.8808125899539572 0.4687864197542316 0.06639634050616723
-0.9031463860418438 0.4151169116384305 0.1095653003981077
-0.9227214820069624 0.3571200810692901 0.1450872645683901
-0.9395125007178954 0.29517158346063 0.1737526900860827
-0.9532839873746285 0.229871507661292 0.1959814516240075
-0.9637136220540378 0.1620839137677371 0.2120963450067434
-0.970520731311564 0.0926702150471075 0.2224898679436645
-0.9735149936822641 0.02235037271207965 0.2275280596222186
-0.9725987016514869 -0.04826906710874265 0.2274244109727299
-0.9677635469582511 -0.1186134570826474 0.2221813785574461
-0.9590949856092601 -0.1880589445770496 0.2115907416304854
-0.946782118632251 -0.2558601220080824 0.1952926465697946
-0.9311155127444124 -0.3211364266163311 0.1729025662817169
-0.9124285621054679 -0.3830225423160486 0.144110551771543
-0.8909519555101643 -0.4409404112938768 0.1085180476261918
-0.8666793170827654 -0.4945663505198351 0.06535354829267224
-0.8392804131712261 -0.5435345050901147 0.01336524760636839
-0.8079933554551126 -0.5871437470296806 -0.049081135524085
-0.7714643940471398 -0.6240648544572827 -0.1240392927611619
-0.7286857348018582 -0.6509143191634372 -0.2129029098069697
-0.6808251903948704 -0.6616780832654923 -0.3141005798305572
-0.6229936323497106 -0.6554936968746863 -0.4268570573497293
-0.5499974539812061 -0.6294785970062682 -0.5488711110317347
0 0 0
0 0 0
0 0 0
0 0 0
0 0 0
0 0 0
0 0 0
0 0 0
0 0 0
-0.5435227692647346 0.6179762259503262 -0.5680566727457615
-0.6088521621153461 0.6621004098087117 -0.4369463262445445
-0.6616780832656616 0.680825190394347 -0.3141005798313354
-0.7050253904212135 0.6790247918261503 -0.2046082377297365
-0.7419475052485601 0.661482261467666 -0.109339458655418
-0.7749689985985334 0.6313981536864465 -0.02755762566935462
-0.8047533317130864 0.5921652363267194 0.04138125158579938
-0.8317890896264941 0.5461877875582768 0.09902429550631642
-0.8564732529512188 0.4947638134057501 0.1471813029000533
-0.878954342118715 0.4385587824061837 0.1873645079652539
-0.8991453904310038 0.3779411847728778 0.2206762962330817
-0.916774898567659 0.3132387776984775 0.2478008343452901
-0.9314458689494018 0.2449350495208669 0.2691011236195492
-0.9427156852189352 0.1737241928349816 0.2847929803664882
-0.9501841254813479 0.100417271921391 0.295070329215106
-0.9535551828494608 0.02584606265488466 0.3001074712601646
-0.9526679411590564 -0.04916904708087895 0.3000103309836553
-0.9475100322942782 -0.1238072000980268 0.294782149910035
-0.9382226415539953 -0.1972257535070146 0.2843242462911544
-0.9250947757026282 -0.2685568570367353 0.268471358819249
-0.908534018393627 -0.3369524288710369 0.2470404786658186
-0.888999018266501 -0.4016918143802756 0.2198281869576317
-0.8669011095211924 -0.4622836063173054 0.1864841377736766
-0.8425137027385515 -0.5184182673227843 0.1463323641708053
-0.8159009116347589 -0.5697795953545278 0.09826960420801324
-0.7868498333965439 -0.615796014179017 0.04077509785477488
-0.754838931033552 -0.6553134427504705 -0.02797284302050188
-0.7191925198045502 -0.6861211036149164 -0.1095442861651413
-0.6790247918255228 -0.7050253904214788 -0.2046082377309045
-0.6315981311667468 -0.7089253145409992 -0.3138609550575189
-0.573961126708427 -0.6928535830916802 -0.4364888743423053
-0.5041541701333528 -0.6509745843204838 -0.5675038883619417
0 0 0
0 0 0
0 0 0
0 0 0
0 0 0
0 0 0
0 0 0
0 0 0
-0.5768634847668749 0.6734013429086834 -0.4623409470416814
-0.6121566012717057 0.7178078251192721 -0.3316869332925462
-0.6509143191630627 0.728685734802506 -0.2129029098058975
-0.6861211036154349 0.7191925198038303 -0.1095442861666217
-0.7178278279892804 0.6958996223557056 -0.02114060002407564
-0.7471687994699724 0.6624374763900873 0.05399421239848116
-0.7747970701541939 0.6211854055191185 0.1175508062521265
-0.8009888728875011 0.5736600920167323 0.1712627348192367
-0.8257737104014378 0.5206970519398989 0.2167310760157391
-0.8489757525999676 0.4627119716221971 0.2552210861484939
-0.8702486740551574 0.3999421686829928 0.2875995601776615
-0.8891156650533327 0.3326449949237616 0.3143575058892979
-0.9050178552279554 0.2612433969932189 0.3357001180310105
-0.9173787262624646 0.1863852290109796 0.3516771516712195
-0.9256793529533481 0.1089125000282524 0.3622924272648633
-0.9295260461564313 0.02979520906330116 0.367550778850577
-0.9286980488348237 -0.04992529218683549 0.3674607452374337
-0.9231739391480303 -0.1291759067294926 0.3620268818727716
-0.9131379166376216 -0.2068873335165633 0.351250304525291
-0.898963734778978 -0.2820415882754393 0.3351369064058721
-0.8811715963329736 -0.3537409681658536 0.3136940312742389
-0.8603583348192739 -0.4212863819237286 0.2868820665580538
-0.8371146422486041 -0.4842181050738551 0.2545032464462407
-0.8119495294328267 -0.5422656156910165 0.2160693492678988
-0.7852266869463826 -0.59521167778086 0.170710599379478
-0.7571038907308105 -0.6427041899569124 0.1171538426689336
-0.7274734874685514 -0.6840243648057658 0.05378655391835018
-0.6958996223549739 -0.7178278279899347 -0.02114060002594141
-0.6614822614683318 -0.7419475052481947 -0.1093394586538687
-0.6227919208558086 -0.7529630565113775 -0.2125484858703442
-0.579659459067421 -0.7443884599447362 -0.3314826273196956
-0.5399058431634505 -0.7025971460421357 -0.4635287810820476
0 0 0
0 0 0
0 0 0
0 0 0
0 0 0
0 0 0
0 0 0
-0.4559373307881207 0.730501156788083 -0.5084183418456457
-0.5410452248819781 0.758338958065365 -0.3635823006043416
-0.58799401210078 0.7737041029407545 -0.2358919303966748
-0.624064854457916 0.7714643940464125 -0.1240392927624987
-0.6553134427496553 0.7548389310343244 -0.02797284301876085
-0.684024364806744 0.7274734874677884 0.05378655391623093
-0.7114157060937579 0.6918577430008337 0.1233716198033876
-0.7380643499456645 0.6494911676898149 0.1828175003444807
-0.7641126090358902 0.6011946507728111 0.2338737107811007
-0.7894094707136436 0.5473432514204324 0.2779353390127166
-0.8135930190583834 0.4880698325339229 0.3159972118702518
-0.8361412632965399 0.4234465656194364 0.3486556953184187
-0.8564141785094609 0.353640569263479 0.3761556893348382
-0.8737019880510486 0.2790327667869052 0.3984790472972067
-0.8872888271323093 0.200279267888097 0.4154596876959043
-0.8965298281601576 0.1183068531685239 0.4268931432015265
-0.9009285520842549 0.03426086558791813 0.4326129183560451
-0.9001998600244354 -0.05056936693586463 0.4325308672680969
-0.8943082692462787 -0.1348333565227953 0.4266528864621938
-0.8834764324863009 -0.217206897239009 0.4150789768623326
-0.8681612705729984 -0.2964829270777918 0.3979872890287595
-0.848999224639353 -0.371659043317315 0.3755926943941204
-0.8267291115526819 -0.4420033449121969 0.3480689862624106
-0.8021082615322501 -0.5070710851138849 0.3154381895445415
-0.7758364086944061 -0.566653880592683 0.2774549450873414
-0.7484898284323549 -0.6206707435212621 0.2335183180610619
-0.7204564662753253 -0.6690219354204103 0.1826256557233924
-0.6918577430001227 -0.7114157060948773 0.1233716198009217
-0.6624374763907825 -0.7471687994691955 0.05399421240070403
-0.6313981536857938 -0.7749689985989973 -0.02755762567126468
-0.5971978386976399 -0.7925379991070615 -0.1234433531067702
-0.5572109805751176 -0.7963707059950336 -0.2351799773779372
-0.5052901219598425 -0.7830260818607521 -0.3627010446298793
-0.4149085278616513 -0.7563708889135459 -0.5057212591060507
0 0 0
0 0 0
0 0 0
0 0 0
0 0 0
-0.3802241170154186 0.7279126045728147 -0.5705899236262992
-0.4548421001668668 0.7847780832721158 -0.421001216068953
-0.5130658854136312 0.8117550428067752 -0.2789572506720281
-0.5544351359435834 0.8176659528482848 -0.1549969986287674
-0.5871437470287523 0.8079933554558819 -0.04908113552253005
-0.6157960141801556 0.7868498333957535 0.04077509785283053
-0.6427041899555899 0.7571038907315762 0.1171538426712409
-0.6690219354218883 0.7204564662746223 0.1826256557207515
-0.6952395711525664 0.677746384704059 0.2393778952288051
-0.7214184117336867 0.6292637444513844 0.2891065809189878
-0.74732079651565 0.5749883765113017 0.3330165070564993
-0.7724864703138403 0.5147748697099612 0.3718487416909679
-0.7962814939790978 0.4485093600816426 0.4059250377416634
-0.8179404291680137 0.3762471828245544 0.4352143285199047
-0.8366177217904317 0.2983247486382365 0.4594269603931841
-0.8514576141857162 0.2154281554028533 0.4781324514241757
-0.86168157649536 0.1286038683642629 0.4908827821081297
-0.8666812596801798 0.03921094704435801 0.4973189074940351
-0.866099190426573 -0.05117385023551896 0.4972458440193411
-0.859880544569233 -0.1408821503432741 0.490670631672585
-0.8482848920957413 -0.2282939263483998 0.4778018679688761
-0.831854763456057 -0.3119725297203042 0.4590106678666421
-0.8113470895871573 -0.3907743402466889 0.4347543159339693
-0.7876421112725042 -0.4639127694146278 0.4054686756387501
-0.7616483394871468 -0.530962146409279 0.3714444858076679
-0.7342177499615644 -0.5918009618102136 0.3327099596373448
-0.7060741410061717 -0.6465094491063859 0.2889374320134963
-0.6777463847034521 -0.6952395711541717 0.2393778952258617
-0.6494911676904375 -0.7380643499444278 0.1828175003472614
-0.621185405518499 -0.774797070155077 0.1175508062495789
-0.5921652363273152 -0.8047533317125326 0.041381251588043
-0.560971668465799 -0.8264265666007582 -0.04826921581276854
-0.5248766079837084 -0.8371360663840068 -0.1539732208880095
-0.4788751309384836 -0.8328318515904496 -0.2776143295024108
-0.4147435976910749 -0.8077957778662715 -0.4188719726070108
-0.3343100223474109 -0.7526976060558368 -0.5671711582898812
0 0 0
0 0 0
0 0 0
0 0 0
-0.4068492062720725 0.7683792849567083 -0.4940313733005239
-0.4432100122733893 0.8278544928134968 -0.3438340060976076
-0.4819382388476425 0.8516243163367642 -0.2060862871720756
-0.5149718706663924 0.8527638954819508 -0.08716484947961825
-0.5435345050913569 0.839280413170449 0.01336524760465202
-0.5697795953530524 0.8159009116355378 0.09826960421009902
-0.5952116777825365 0.7852266869456405 0.1707105993770471
-0.6206707435194174 0.7484898284330271 0.2335183180638102
-0.6465094491083682 0.7060741410056002 0.2889374320104577
-0.6727250565186015 0.6578741938394865 0.3385890479801286
-0.6990395102176946 0.6035416674026503 0.3835116932551519
-0.7249473572735099 0.5426680495232722 0.4242201282456561
-0.7497494309449048 0.4749388758805976 0.4607698503320996
-0.7725887933385409 0.4002743920879591 0.4928356393832649
-0.7925031991225829 0.3189520239446326 0.5198156267390329
-0.8085028613601786 0.231691837839107 0.5409639687180101
-0.8196724398132027 0.1396825806211003 0.55554105886217
-0.8252842006538054 0.04453417239143104 0.5629588756211408
-0.824900380892709 -0.05184230918492085 0.5628958487868233
-0.8184410879731177 -0.1474096852165187 0.555359856509044
-0.8062005970011262 -0.2402038271873927 0.5406872652463312
-0.7888076388040015 -0.3285193640917753 0.5194781385016995
-0.7671398152776199 -0.4110474002760301 0.49247998796107
-0.7422130598827585 -0.486942626225958 0.4604418014294957
-0.7150696394635035 -0.55581457338157 0.4239641149132763
-0.6866815544538677 -0.6176551775530255 0.3833673491766875
-0.6578741938390448 -0.6727250565206941 0.3385890479768288
-0.6292637444518646 -0.7214184117319793 0.2891065809222031
-0.6011946507723093 -0.7641126090372222 0.233873710778039
-0.5736600920172411 -0.8009888728865299 0.1712627348220754
-0.5461877875577753 -0.8317890896271263 0.09902429550377236
-0.5176769374189536 -0.8554562226752348 0.01432618409595951
-0.486213480097053 -0.8695986309748072 -0.08599228325061178
-0.4491572766756556 -0.8696878364850423 -0.2046968682693371
-0.4050226112024263 -0.8478070210316648 -0.3423155554516651
-0.3628495468829029 -0.7906029080094163 -0.4932415718224953
0 0 0
0 0 0
0 0 0
-0.2900007050301696 0.7595755384840676 -0.5821894815424293
-0.3688712412881062 0.8271763602109381 -0.4239260271070359
-0.4106210612010822 0.8691504500543138 -0.2756226392524395
-0.4425023966470735 0.8852205128509394 -0.1434443187774103
-0.469750246717254 0.8822823935600017 -0.0302073455158315
-0.494566350518274 0.8666793170835192 0.06535354829448999
-0.5184182673245983 0.8425137027378115 0.1463323641686392
-0.5422656156889856 0.8119495294335206 0.2160693492703891
-0.5666538805948959 0.7758364086937876 0.2774549450845508
-0.5918009618078509 0.7342177499620794 0.3327099596404104
-0.6176551775555098 0.6866815544534839 0.3833673491733721
-0.6439259041753898 0.632600896138567 0.4303202715845355
-0.6700984358017097 0.5713169369117507 0.4738829432822795
-0.6954463431321748 0.5023015346875903 0.5138555751128682
-0.7190554635297447 0.4253152807414593 0.5496054515157555
-0.7398731232552916 0.3405552811863551 0.5801808872589153
-0.75679171563987 0.2487689619450907 0.6044669575019161
-0.7687657278234562 0.1513012340288725 0.621375242752245
-0.7749474343711413 0.05004725067965603 0.6300410674400461
-0.7748140187047389 -0.05269779395248286 0.6299890308022462
-0.7682544148870374 -0.1544720076985951 0.6212274566083993
-0.7555916757887758 -0.2529164754230978 0.6042470322130399
-0.7375345496976511 -0.346021629495744 0.5799239777103484
-0.7150725369888175 -0.4322990332190018 0.5493530856582972
-0.6893426903794089 -0.5108522557666424 0.5136502973800475
-0.6614983441564578 -0.581349912898527 0.473763885760765
-0.6326008961383434 -0.6439259041779728 0.4303202715809988
-0.6035416674029328 -0.6990395102155136 0.3835116932586831
-0.5749883765109779 -0.7473207965174385 0.3330165070530451
-0.5473432514207833 -0.7894094707122354 0.2779353390160254
-0.5206970519395315 -0.8257737104024813 0.2167310760126455
-0.4947638134061232 -0.8564732529505206 0.1471813029028619
-0.4687864197538629 -0.8808125899543383 0.06639634050371478
-0.4414247547057219 -0.8968307443698711 -0.02896207668616922
-0.4106868259572403 -0.9006531069637257 -0.1419870131447047
-0.3738703778781329 -0.8861035111335308 -0.2739370513495578
-0.3257458960121628 -0.8461362956362388 -0.4218328821206521
-0.2404572557216202 -0.7799824608891665 -0.5777609097854464
0 0 0
0 0 0
-0.3182509430236134 0.7897402616084954 -0.5244298394057354
-0.3462923331236099 0.8642052511766353 -0.3650080873878481
-0.3734105672958986 0.9015634726092421 -0.2185128213366877
-0.3974862333351947 0.9130848574114814 -0.09099855754270805
-0.419622522712919 0.9075359888433173 0.01718625573612497
-0.4409404112957513 0.8909519555094632 0.1085180476243311
-0.4622836063151595 0.8669011095218666 0.1864841377758621
-0.4842181050762346 0.837114642247984 0.2545032464437528
-0.5070710851113084 0.8021082615327904 0.3154381895473096
-0.5309621464120198 0.7616483394867121 0.3714444858046417
-0.5558145733786937 0.7150696394638062 0.4239641149165368
-0.5813499129015164 0.6614983441563154 0.4737638857572956
-0.6070749768734841 0.600032898802266 0.5209803190227132
-0.6322728540949022 0.5299189174990983 0.5651698672534389
-0.6560117669482419 0.4507331808926905 0.6053826568938048
-0.6771864554246834 0.3625681130261728 0.6402834278708089
-0.6946031027946757 0.2661854198901372 0.6683351343644296
-0.7071083049122679 0.1630927994180181 0.6880396673899644
-0.7137461380983947 0.05549971258849831 0.6982021428298691
-0.7139107167381087 -0.05386747313994294 0.6981617175583298
-0.7074537137259955 -0.1620682024647492 0.6879266971743007
-0.694714505710889 -0.2663019561226117 0.6681728995702724
-0.6764639281586438 -0.3642267750184321 0.6401057805236953
-0.6537800905101601 -0.4541700493129338 0.6052281880081375
-0.6278925794184579 -0.5352006125358074 0.5650762895862217
-0.6000328988023125 -0.6070749768765684 0.5209803190190655
-0.5713169369117844 -0.6700984357990454 0.4738829432860063
-0.5426680495231783 -0.7249473572757623 0.4242201282419272
-0.5147748697100998 -0.7724864703119867 0.3718487416946269
-0.4880698325337509 -0.8135930190598535 0.3159972118667327
-0.4627119716223941 -0.848975752598865 0.2552210861518048
-0.4385587824059677 -0.8789543421194694 0.1873645079622206
-0.4151169116386584 -0.9031463860414132 0.1095653004007936
-0.391476311759491 -0.9200041328872499 0.01840360838435441
-0.3662704542540637 -0.9261829489626027 -0.08961640135297828
-0.3377887725819432 -0.9158655277756382 -0.2170001846769612
-0.3046740358345237 -0.880365909797585 -0.3634963504006239
-0.2702253849054613 -0.8080263325116804 -0.5235185644467806
0 0 0
0 0 0
-0.2993581194099437 0.8300653748418984 -0.4705063122126207
-0.3118137855439107 0.8973813256306097 -0.3122161423665104
-0.3291678576063806 0.9288840149902676 -0.1697734025528892
-0.3471052826408231 0.9366344953946022 -0.04726250945234337
-0.3649613789872195 0.9293180719075609 0.05631263689226658
-0.3830225423138755 0.9124285621060881 0.1441105517733916
-0.4016918143827389 0.8889990182659187 0.2198281869554843
-0.4212863819210149 0.8603583348197943 0.2868820665604789
-0.4420033449151246 0.826729111552246 0.3480689862597278
-0.4639127694115191 0.7876421112728322 0.4054686756416698
-0.4869426262292202 0.7422130598825635 0.4604418014263604
-0.5108522557632499 0.6893426903794444 0.5136502973833735
-0.5352006125393128 0.6278925794186097 0.5650762895827331
-0.5593198696818108 0.5568728444301838 0.6140471631034201
-0.5823087455547844 0.4756563929317479 0.6592931978365707
-0.6030622206342353 0.3842079665142977 0.6990709524151698
-0.6203517723980552 0.283287462539455 0.7313767100821218
-0.6329595614704072 0.1745650745743315 0.7542474582536207
-0.6398511526675081 0.06058435151585535 0.7661070674399656
-0.6403501116020955 -0.05546055504802437 0.7660782345197833
-0.6342655885418513 -0.1701078256300292 0.7541687416295387
-0.6219319082987392 -0.2800808720155096 0.7312697221756962
-0.6041476931491921 -0.3826897202592242 0.6989664819363128
-0.5820364897687041 -0.4760836990248024 0.6592251786002914
-0.5568728444305505 -0.559319869685416 0.6140471630998036
-0.5299189174988338 -0.6322728540917351 0.5651698672572302
-0.5023015346877748 -0.6954463431349085 0.5138555751089882
-0.4749388758804747 -0.7497494309425921 0.4607698503359891
-0.4485093600817159 -0.7962814939810063 0.4059250377378388
-0.4234465656194032 -0.8361412632950179 0.3486556953221093
-0.3999421686829908 -0.8702486740563108 0.2875995601741741
-0.3779411847729112 -0.8991453904301999 0.2206762962362988
-0.3571200810692274 -0.9227214820074391 0.1450872645655136
-0.3368555520263616 -0.9398045608521222 0.05740840069679914
-0.316243327331714 -0.9475583496115267 -0.04607962673075323
-0.2943781370796106 -0.9407002026010512 -0.1685960890290116
-0.2715403165889025 -0.9106856725378021 -0.3113156955586547
-0.2530283623214552 -0.8452157778317351 -0.47073021654151
0 0 0
0 0 0
-0.2499153841103843 0.8704980911564865 -0.4239992618836403
-0.2620235942827878 0.9272952485223414 -0.2673334212308996
-0.2766601456160424 0.9522071799932031 -0.129462929818158
-0.2913449192692749 0.9565463710000763 -0.01171230731169689
-0.3060470364549015 0.9479491863179371 0.08790649370969521
-0.3211364266187813 0.9311155127438988 0.1729025662799309
-0.3369524288682787 0.9085340183940911 0.2470404786678739
-0.3537409681688801 0.8811715963325792 0.3136940312719336
-0.371659043314057 0.8489992246396573 0.3755926943966565
-0.3907743402501471 0.8113470895869642 0.4347543159312214
-0.4110474002723996 0.7671398152776787 0.4924799879640087
-0.4322990332227831 0.7150725369889176 0.549353085655191
-0.4541700493090194 0.6537800905098752 0.6052281880113829
-0.4760836990288376 0.5820364897691997 0.6592251785969396
-0.4972255051999526 0.4990005017203753 0.7097642540037258
-0.5165588094298365 0.404493242950362 0.7546868309490559
-0.532893382730077 0.2992577165099727 0.7914982386283193
-0.5450146483285703 0.1851194822414119 0.8177345598676601
-0.551861016756378 0.06496147773533988 0.8314020835883544
-0.5527116856368153 -0.05753800989917374 0.8313838884518705
-0.5473300449427074 -0.1783765138450484 0.8176867622821716
-0.5360139751291085 -0.2937897774689642 0.7914395650465217
-0.5195365072427486 -0.400743057424037 0.7546435049534579
-0.4990005017211049 -0.497225505204099 0.709764254000308
-0.4756563929311406 -0.5823087455510871 0.6592931978402745
-0.4507331808931988 -0.6560117669514848 0.6053826568899123
-0.4253152807410301 -0.7190554635269476 0.5496054515197469
-0.4002743920883232 -0.7725887933409087 0.4928356393792575
-0.3762471828242447 -0.817940429166055 0.4352143285238532
-0.3536405692637394 -0.8564141785110305 0.3761556893310195
-0.3326449949235469 -0.8891156650521324 0.3143575058929198
-0.3132387776986458 -0.9167748985685091 0.2478008343419324
-0.2951715834605076 -0.9395125007173746 0.1737526900891075
-0.2779260336246341 -0.956486537161724 0.08882918474269544
-0.260688500344553 -0.965363025541267 -0.01075800659595522
-0.2424613323512667 -0.9616040110581261 -0.1285699351768194
-0.2227873126889511 -0.9376714614284012 -0.2667171605419515
-0.2048577850954861 -0.8820776403496119 -0.424231451310522
0 0 0
-0.08179886162002536 0.8285398658537555 -0.5539229521591503
-0.1682749232839909 0.9064800482167829 -0.387269250494621
-0.2004159343526707 0.9515459916690322 -0.2332245248599373
-0.218082623914382 0.9709134678424008 -0.09882816961201363
-0.2314633250251855 0.9727208066782427 0.0154583771306598
-0.2436699742157618 0.9633421259383712 0.1122358768764643
-0.2558601220053843 0.9467821186326342 0.195292646571472
-0.2685568570397587 0.925094775702306 0.268471358817335
-0.282041588272131 0.8989637347792211 0.3351369064080043
-0.2964829270813499 0.8681612705728523 0.3979872890264274
-0.3119725297165273 0.831854763456087 0.4590106678691548