# OOMMF: rectangular mesh v1.0
# Segment count: 1
# Begin: Segment
# Begin: Header
# Title: 
# meshunit: m
# valueunit: (none)
# valuemultiplier: 1
# xmin: 0
# ymin: 0
# zmin: 0
# xmax: 9.357999999999999e-08
# ymax: 9.357999999999999e-08
# zmax: 2.3395e-08
# ValueRangeMaxMag: 1
# ValueRangeMinMag: 0
# meshtype: rectangular
# xbase: 1.16975e-09
# ybase: 1.16975e-09
# zbase: 1.16975e-09
# xstepsize: 2.3395e-09
# ystepsize: 2.3395e-09
# zstepsize: 2.3395e-09
# xnodes: 40
# ynodes: 40
# znodes: 10
# End: Header
# Begin: Data Text
0 0 0
0 0 0
0 0 0
0 0 0
0 0 0
0 0 0
0 0 0
0 0 0
0 0 0
0 0 0
0 0 0
0 0 0
0 0 0
0 0 0
0 0 0
0 0 0
-0.8358242367384947 0.02962355491723661 -0.5481973096199741
-0.8456599288824371 0.04829361011031469 -0.5315327006921245
-0.8561967201066999 0.02913683420599774 -0.5158277051215657
-0.8617358175581634 -0.005736101095559198 -0.5073248248228985
-0.8604794452590511 -0.0451232908697245 -0.5074830173589669
-0.8525018639587127 -0.08036582412596999 -0.516509347698058
-0.8398070485682683 -0.1001552241709524 -0.5335663522433925
-0.828545164178125 -0.08179866574285359 -0.5539150559424543
0 0 0
0 0 0
0 0 0
0 0 0
0 0 0
0 0 0
0 0 0
0 0 0
0 0 0
0 0 0
0 0 0
0 0 0
0 0 0
0 0 0
0 0 0
0 0 0
0 0 0
0 0 0
0 0 0
0 0 0
0 0 0
0 0 0
0 0 0
0 0 0
0 0 0
0 0 0
0 0 0
0 0 0
-0.7799870684328714 0.2404602876795005 -0.5777534276199375
-0.8080306367305303 0.2702275823006201 -0.5235107867740786
-0.8452196287047653 0.2530301287381053 -0.4707223525635424
-0.8820810325706795 0.2048594765049446 -0.424223581222406
-0.9143965586735676 0.1230022475808543 -0.3856804124868081
-0.9277399184921594 0.08234638671175976 -0.3640298287663776
-0.9361016851927545 0.04337149614784873 -0.3490451952128575
-0.9399875446213599 0.0004516016810270585 -0.3412084582958461
-0.9388731240955422 -0.04431115193294428 -0.3413997344249868
-0.932775436638251 -0.08752006764937462 -0.3496715924449231
-0.9222184137766212 -0.1270323762791402 -0.3652067533168126
-0.9064838678882559 -0.1682739237921821 -0.3872607439825647
-0.8705025082551672 -0.2499142649300813 -0.4239908528564256
-0.8300704482279622 -0.2993572203387084 -0.4704979336933495
-0.7897459367934216 -0.318250607691563 -0.5244214965294911
-0.7595816209097935 -0.2900013388315328 -0.5821812300752822
0 0 0
0 0 0
0 0 0
0 0 0
0 0 0
0 0 0
0 0 0
0 0 0
0 0 0
0 0 0
0 0 0
0 0 0
0 0 0
0 0 0
0 0 0
0 0 0
0 0 0
0 0 0
0 0 0
0 0 0
0 0 0
0 0 0
-0.7527019391193172 0.334313538702055 -0.5671633351042085
-0.7906068369103001 0.362852141149094 -0.4932333657552048
-0.8461396005000402 0.3257481066873948 -0.4218245458187675
-0.8803687568308337 0.3046757748989205 -0.3634879973064781
-0.9106880706036072 0.2715417583203673 -0.3113074228934509
-0.9376734572146099 0.2227886815544548 -0.2667090006100812
-0.959088482917089 0.1617434730328068 -0.2323538914395064
-0.9715943254358645 0.1083374886581129 -0.2103983254022716
-0.9788037437114284 0.05771913008424358 -0.196498685285195
-0.9818363291754245 0.006856168435692709 -0.1896059483922067
-0.980822188467188 -0.04445864201995664 -0.1897663399029891
-0.9757452877189584 -0.09550980449242766 -0.1969746449167123
-0.9664131723928368 -0.146499156845622 -0.2111482352972303
-0.9515484049982849 -0.2004145602163697 -0.2332158592345264
-0.9272981559313002 -0.2620222722836398 -0.2673246319247961
-0.8973848157777709 -0.3118126831000133 -0.3122072117512125
-0.8642093368884344 -0.3462916715071036 -0.3649990414777388
-0.8271810286314135 -0.3688711948937528 -0.4239169582004609
-0.7683847057614602 -0.4068497076936863 -0.4940225291435965
-0.7279185080671131 -0.3802256621846936 -0.5705813626728085
0 0 0
0 0 0
0 0 0
0 0 0
0 0 0
0 0 0
0 0 0
0 0 0
0 0 0
0 0 0
0 0 0
0 0 0
0 0 0
0 0 0
0 0 0
0 0 0
0 0 0
0 0 0
0 0 0
-0.7563745413817879 0.4149119943538196 -0.5057129522672179
-0.8077988643897568 0.4147463022808745 -0.4188633421952322
-0.8478095786478389 0.4050246317233542 -0.3423068302712269
-0.8861055268498751 0.3738719423870346 -0.2739283957202149
-0.9158670895046951 0.3377899962134107 -0.2169916883669568
-0.9407013646100872 0.2943791712149567 -0.1685877996045806
-0.9616048392568006 0.2424623362697745 -0.1285618474062374
-0.9779743898963597 0.18426182838682 -0.09804933098389164
-0.9889807394704205 0.1261931711238981 -0.07741046775620439
-0.9955256463187915 0.06895934803994971 -0.06460105138043211
-0.9982194356800911 0.01192184006599009 -0.05844508499404254
-0.9972601122632399 -0.04517467747915119 -0.05857915161014395
-0.9926272891031157 -0.1023089007682254 -0.06499195143551605
-0.9840719698358404 -0.1597342029187892 -0.07802142398923048
-0.9709146965521068 -0.2180810146166898 -0.09881964927525734
-0.9522088197103494 -0.2766585983291206 -0.1294541758167301
-0.9288861441158467 -0.3291664948520421 -0.1697643953731599
-0.9015661347435576 -0.3734095480830487 -0.2185035791102153
-0.8691536858734613 -0.4106205268234914 -0.2756132313292928
-0.8278583816784745 -0.4432100721686301 -0.3438245654588608
-0.7847825897976524 -0.4548429597743424 -0.4209918867320427
-0.7305062977951908 -0.4559390761023941 -0.5084093899255391
0 0 0
0 0 0
0 0 0
0 0 0
0 0 0
0 0 0
0 0 0
0 0 0
0 0 0
0 0 0
0 0 0
0 0 0
0 0 0
0 0 0
0 0 0
0 0 0
-0.6509787076725514 0.5041583516617962 -0.5674954436879955
-0.7026007022823944 0.5399088668153904 -0.4635198687072721
-0.7830286775744978 0.5052925862481416 -0.3626920076023143
-0.8328337814571125 0.4788770015515947 -0.2776053130773978
-0.8696892265749271 0.449158629092569 -0.2046879944969626
-0.900654022172833 0.4106878064319119 -0.1419783715642708
-0.9261834645248215 0.3662711970808376 -0.0896080366360546
-0.9475585276461808 0.3162439709850037 -0.04607154762581468
-0.9653629312559201 0.2606891722194941 -0.01075018346318171
-0.9794718771353943 0.2009267520303498 0.01622597360409333
-0.9895953466536006 0.1395438355538959 0.03505093209098558
-0.9958732188089759 0.07774623508540554 0.0468193868936143
-0.9984990698851901 0.0158181287585541 0.05243466640484617
-0.997562861209139 -0.04616721783153525 0.05231563756594482
-0.9930500179517987 -0.1081309936895332 0.0464688072759128
-0.9848416452496077 -0.1699930333598745 0.03448626380392617
-0.9727211010037961 -0.2314615396531972 0.01546658732020838
-0.9565470085235648 -0.2913431675948113 -0.01170381050942358
-0.9366355375620365 -0.3471036697596092 -0.04725370054595127
-0.9130863522653794 -0.3974848863768795 -0.09098944119326255
-0.8852225124773553 -0.4425014380526016 -0.1434349355096504
-0.8516268876236294 -0.4819377873723132 -0.2060767172175654
-0.8117582442579254 -0.5130660606069684 -0.2789476121649658
-0.758342909115183 -0.5410460836543459 -0.3635727816504079
-0.673406332847892 -0.5768649555410459 -0.4623318439703032
-0.6179818343667439 -0.5435253903952064 -0.568048063449258
0 0 0
0 0 0
0 0 0
0 0 0
0 0 0
0 0 0
0 0 0
0 0 0
0 0 0
0 0 0
0 0 0
0 0 0
0 0 0
-0.6294821618012483 0.550002053200972 -0.5488624139515674
-0.6928565019192169 0.5739646120625918 -0.4364796580003522
-0.7443907157852183 0.5796619304385371 -0.3314732397238703
-0.7963722346424216 0.5572127203378885 -0.2351706788362135
-0.8371369965623978 0.5248777868815484 -0.153964144607812
-0.8695990760913841 0.4862142367668932 -0.08598350322124614
-0.896830782966255 0.4414252302091304 -0.02895363291454136
-0.9200038329733522 0.3914766358199645 0.01841170609755336
-0.9398039788736077 0.3368558515258838 0.05741617007522357
-0.9564857301709927 0.2779264184936396 0.08883666969534998
-0.9699400600275506 0.2155279556406855 0.1129777867153429
-0.9799262350941365 0.1509876689665962 0.1301817867225067
-0.98631165717675 0.08532304264779392 0.1411002952178893
-0.9890495804723274 0.01912326862010347 0.1463394272395385
-0.9881220434710427 -0.04724242689639392 0.1462292047012131
-0.9835197499682072 -0.1134544983495686 0.1407727893689773
-0.9752456106925182 -0.1791313284969638 0.1296455397454519
-0.9633416994353478 -0.2436680496184547 0.1122437157445974
-0.9479490521133074 -0.3060451120180148 0.08791464046085952
-0.9293182759453517 -0.3649595505632768 0.05632111901063288
-0.9075365721615242 -0.4196208996855741 0.01719507884190621
-0.8822834047995847 -0.4697489353304677 -0.03019820145544217
-0.8527653966275397 -0.5149709791666126 -0.0871554297267514
-0.8176680246845988 -0.5544347699785306 -0.1549873777029587
-0.7737068615058373 -0.587994276590415 -0.2358822230599434
-0.7178114056749625 -0.6121576188362001 -0.3316773064044741
-0.6621047313969118 -0.6088541747251814 -0.4369369732370347
-0.594974664158329 -0.5867098763006049 -0.5493420337649505
0 0 0
0 0 0
0 0 0
0 0 0
0 0 0
0 0 0
0 0 0
0 0 0
0 0 0
0 0 0
0 0 0
-0.5867099056355727 0.5949746629907725 -0.5493420036990743
-0.6554961485086412 0.6229974825044393 -0.4268476731615949
-0.7089271134268327 0.6316008855308679 -0.3138513489614499
-0.7529642393426451 0.622793747661749 -0.2125389426542463
-0.7925386006606124 0.5971989609899964 -0.1234340611637906
-0.8264266724480922 0.5609722822406501 -0.04826026962304981
-0.8554559192829186 0.5176772017731384 0.01433474548603011
-0.8808119439259025 0.4687864766564672 0.06640450844248176
-0.9031454532344718 0.4151168856170225 0.1095730878342117
-0.9227203090132079 0.3571200893021015 0.1450947040778149
-0.9395111347503503 0.2951717268487808 0.1737598323814149
-0.9532824787896556 0.2298718688980931 0.195988365782123
-0.9637120261936881 0.1620845475646144 0.2121031117415059
-0.970519105343726 0.09267114835526678 0.2224965717159017
-0.9735133944717899 0.02235160648706724 0.2275347807950687
-0.9725971832760048 -0.04826755362952694 0.227431225539067
-0.967762160542694 -0.1186117037364446 0.2221883533366997
-0.9590937778788057 -0.1880570082318664 0.2115979368733047
-0.9467811325070169 -0.2558580722275202 0.1953001126593304
-0.9311147857584979 -0.3211343470367272 0.1729103435170976
-0.9124281272628344 -0.3830205248394005 0.1441186668387769
-0.8909518436838452 -0.4409385543281954 0.108526510785696
-0.8666795671387855 -0.4945647488041442 0.06536235265365441
-0.8392810761960839 -0.5435332568808395 0.01337437114969219
-0.8079945045009397 -0.5871429517457776 -0.04907173230624901
-0.7714661220172725 -0.6240646301045542 -0.1240296739981865
-0.7286881382974935 -0.65091481115037 -0.2128931791523882
-0.6808283034262234 -0.6616794725413105 -0.3140909054258384
-0.6229974880090892 -0.6554961240245853 -0.4268477027267569
-0.5500020567902077 -0.6294821362458661 -0.5488624396639668
0 0 0
0 0 0
0 0 0
0 0 0
0 0 0
0 0 0
0 0 0
0 0 0
0 0 0
-0.5435254181169303 0.6179818424475128 -0.5680480281331793
-0.6088541997540767 0.6621047318053003 -0.4369369377414248
-0.6616794932863163 0.6808282988412725 -0.3140908716617891
-0.7050262180808518 0.6790268562048473 -0.2045985346261615
-0.741947809378208 0.6614834873531041 -0.1093299781306745
-0.774968838634971 0.631398748406952 -0.02754849641810417
-0.8047527721052268 0.5921653874541924 0.04138997088883443
-0.8317881925469535 0.5461876500267402 0.09903258906914852
-0.8564720662499297 0.4947635244886512 0.1471891795246626
-0.8789529074748351 0.4385584605747609 0.1873719912362284
-0.8991437427510205 0.3779409421179762 0.2206834251652412
-0.9167730760864061 0.3132387103967813 0.2478076618509396
-0.931443913906257 0.2449352392536596 0.2691077178728717
-0.9427136471060901 0.1737246964421034 0.2847994196026965
-0.9501820579171101 0.1004181200119955 0.2950766984796692
-0.9535531424400748 0.02584725849518494 0.3001138513480189
-0.9526659821568726 -0.0491675252914275 0.3000168010258723
-0.9475082058608872 -0.1238053959393689 0.2947887782168415
-0.938220991492451 -0.1972237302593851 0.2843310945807634
-0.9250933393991142 -0.2685546906441029 0.2684784749890481
-0.9085328241243188 -0.3369502074313163 0.2470479006198636
-0.8889980892265973 -0.4016896288320888 0.2198359375538884
-0.8669004657905891 -0.4622815495758972 0.1864922286149381
-0.8425133715838702 -0.5184164259654168 0.1463407940104958
-0.8159009292170922 -0.569778059261112 0.09827836428902101
-0.7868502555254336 -0.6157948739666368 0.04078417065447135
-0.7548398277511404 -0.6553128089995025 -0.02796349051548397
-0.7191939711343603 -0.6861211102813581 -0.1095347155483812
-0.6790268658972961 -0.705026199611068 -0.2045985661036496
-0.6316008953835902 -0.7089270921256665 -0.3138513772486804
-0.573964619236639 -0.6928564799613449 -0.4364796834219368
-0.5041583580453115 -0.6509786840572749 -0.5674954651062103
0 0 0
0 0 0
0 0 0
0 0 0
0 0 0
0 0 0
0 0 0
0 0 0
-0.5768649787289097 0.6734063397019584 -0.4623318050548811
-0.612157640132333 0.7178114054492233 -0.3316772675879723
-0.6509148294645314 0.7286881324824017 -0.2128931430611835
-0.6861211267821007 0.7191939604576529 -0.1095346822905688
-0.7178274241380764 0.6959003209480316 -0.02113131467089362
-0.7471680257553991 0.662437624850307 0.05400309686918763
-0.77479597411837 0.6211851731043826 0.1175592582710675
-0.8009874961867803 0.5736596208337783 0.17127075166904
-0.8257720830959547 0.5206964703127173 0.2167386734831709
-0.8489739024476356 0.4627113924276079 0.2552282905175995
-0.8702466249634018 0.3999417008506432 0.2876064110212119
-0.8891134476734631 0.3326447338412654 0.3143640536287206
-0.9050155059037379 0.2612434268994421 0.3357064282608192
-0.9173762917361986 0.1863856110872434 0.3516832997740658
-0.9256768866489847 0.1089132697365948 0.3622984973735411
-0.9295236071552382 0.0297963723090926 0.3675568526613698
-0.9286956946255105 -0.0499237572652672 0.3674669036043363
-0.9231717234875434 -0.1291740473433078 0.3620331952266077
-0.9131358836834366 -0.2068852199284108 0.3512568343888015
-0.8989619192577448 -0.2820393036102797 0.3351436989463774
-0.8811700209141085 -0.3537386060497759 0.3137011202278223
-0.8603570149297133 -0.4212840353168575 0.2868894707868823
-0.8371135877149164 -0.4842158661687186 0.2545109746426226
-0.8119487556677533 -0.5422635656452669 0.2160774017412925
-0.7852262147628004 -0.5952098991008852 0.1707189727640075
-0.7571037580755313 -0.642702762543652 0.117162530386915
-0.7274737446689359 -0.6840233844693228 0.0537955417900829
-0.6959003348586669 -0.7178274097721322 -0.02113134457214363
-0.6614835001692825 -0.7419477937977025 -0.1093300063226764
-0.6227937610576704 -0.7529642210203279 -0.2125389683114408
-0.5796619411754275 -0.7443906970969941 -0.3314732629160098
-0.5399088766555333 -0.702600681592926 -0.463519888606428
0 0 0
0 0 0
0 0 0
0 0 0
0 0 0
0 0 0
0 0 0
-0.4559390950058468 0.7305063132637771 -0.5084093507470265
-0.5410461015364886 0.758342916427318 -0.3635727397876208
-0.5879942920305079 0.7737068623203339 -0.2358821819001281
-0.624064643708538 0.7714661171955037 -0.1240296355401729
-0.6553128212194791 0.7548398184516912 -0.02796345517249842
-0.684023395227746 0.7274737322324193 0.05379557317234222
-0.7114144373506519 0.6918575133837195 0.1233802233080797
-0.7380628153484856 0.6494906108536032 0.1828256738340654
-0.7641108341398916 0.6011938927018891 0.2338814582817292
-0.7894074705513521 0.5473424096074978 0.2779426776923144
-0.8135908086771257 0.488069015626689 0.3160041645632139
-0.8361388574443647 0.4234458808168924 0.348662296629329
-0.8564116010410796 0.3536401146142179 0.3761619849717631
-0.8736992713993378 0.2790326323006843 0.3984850979241467
-0.8872860176715162 0.2002795214085217 0.4154655655394255
-0.8965269816251844 0.1183075373449333 0.4268989316283338
-0.9009257326784472 0.03426199176946366 0.4326187006103546
-0.9001971311028398 -0.05056781998874963 0.4325367276148945
-0.8943056904907282 -0.1348314404824374 0.4266588972625934
-0.8834740509545608 -0.2172046890096367 0.4150852013287931
-0.868159121286474 -0.2964805191028563 0.3979937712070351
-0.8489973269903588 -0.3716565364707139 0.3755994644056592
-0.8267274745902331 -0.4420008377278007 0.3480760580757851
-0.8021068861301012 -0.5070686711096171 0.3154455674150445
-0.7758352989135091 -0.5666516388256991 0.2774626266291284
-0.7484889909061323 -0.6206687502269193 0.2335263004119095
-0.7204559229976017 -0.6690202599838174 0.1826339364654303
-0.6918575277280566 -0.7114144282502585 0.1233801953450341
-0.6624376410398196 -0.7471680133081104 0.05400307049427763
-0.6313987635707926 -0.7749688253966728 -0.02754852127746821
-0.5971989765049273 -0.7925385853961016 -0.1234340841089411
-0.5572127339222966 -0.7963722189930212 -0.2351706996438349
-0.5052925983623415 -0.7830286611676078 -0.362692026146559
-0.414912003411846 -0.7563745258661347 -0.5057129680417021
0 0 0
0 0 0
0 0 0
0 0 0
0 0 0
-0.3802256788176975 0.7279185269851192 -0.5705813274542332
-0.4548429745191525 0.7847826022974316 -0.4209918475004479
-0.5130660752936828 0.8117582492902177 -0.2789475705074651
-0.5544347826297041 0.8176680239749395 -0.1549873361899929
-0.5871429627285535 0.8079944988501028 -0.04907169394169272
-0.6157948839366543 0.7868502458963267 0.04078420589311808
-0.6427027712085157 0.7571037458979196 0.1171625615469045
-0.6690202670060525 0.720455909485025 0.1826339640462728
-0.6952376745879615 0.677745541723783 0.2393857901109822
-0.7214162997878575 0.6292627256612794 0.2891140683082253
-0.7473184721729128 0.5749872894131013 0.3330236000083441
-0.7724839387538374 0.514773817888597 0.3718554568427828
-0.7962787611807297 0.4485084520177856 0.4059314017923366
-0.8179375132704163 0.3762465218961965 0.4352203799755037
-0.8366146531746941 0.2983244329490023 0.4594327532937134
-0.8514544402600573 0.2154282635159845 0.4781380547916254
-0.8616783573635354 0.1286044536151029 0.4908882795113769
-0.8666780674149952 0.03921202756537331 0.497324385442762
-0.8660960974936207 -0.05117229370551257 0.4972513914140785
-0.8598776192408758 -0.1408801724927055 0.490676326030784
-0.8482821873653372 -0.2282916126718085 0.4778077753473496
-0.8318523167497223 -0.3119699835299511 0.4590168324739748
-0.8113449187480714 -0.3907716732599074 0.434760764328311
-0.7876402198454069 -0.463910088336791 0.4054754172835011
-0.7616467202683159 -0.5309595490974064 0.37145151867612
-0.7342163958351953 -0.5917985282189073 0.3327172765047087
-0.706073046420764 -0.6465072500335889 0.2889450272493159
-0.6777455576171495 -0.6952376671537762 0.2393857667046936
-0.6494906272320808 -0.7380628069032269 0.1828256497426109
-0.6211851913750098 -0.7747959630252577 0.1175592348399537
-0.5921654043985337 -0.8047527607507196 0.04138994923427075
-0.5609722998499939 -0.8264266593578299 -0.0482602890963726
-0.5248778021762357 -0.8371369837623928 -0.1539641620632771
-0.4788770148231352 -0.8328337687845329 -0.277605328202168
-0.4147463118951648 -0.8077988527790929 -0.4188633550671859
-0.3343135452368012 -0.7527019287239429 -0.5671633450483706
0 0 0
0 0 0
0 0 0
0 0 0
-0.4068497169804755 0.7683847253948174 -0.4940224909584964
-0.4432100807151567 0.8278583941042579 -0.3438245245231687
-0.4819377966206113 0.851626892608617 -0.2060766749883667
-0.5149709868249954 0.8527653962321835 -0.08715538834436351
-0.5435332629497205 0.8392810716578308 0.01337440929957338
-0.5697780650138237 0.8159009209433022 0.09827839962562267
-0.5952099037743137 0.7852262043677745 0.1707190042823283
-0.6206687543836976 0.7484889787729003 0.2335263282529181
-0.6465072548916853 0.7060730322552633 0.2889450509946049
-0.6727226604944407 0.6578729214862177 0.3385962805945599
-0.6990369054196464 0.6035403298422427 0.3835185459860326
-0.7249445405713527 0.5426667465755987 0.4242266083791123
-0.7497464009488064 0.474937718101861 0.4607759739705495
-0.7725855638046694 0.4002734904644478 0.4928414343701514
-0.7924997980866132 0.318951489142682 0.5198211400148538
-0.808499338518456 0.2316917639531108 0.5409692654222739
-0.8196688613177316 0.1396830353374848 0.5555462243819136
-0.8252806486407884 0.04453518379143594 0.5629640027423618
-0.8248969392230729 -0.05184075568758306 0.5629010354495234
-0.8184378367586393 -0.1474076476349935 0.5553651886646803
-0.8061975968114409 -0.2402014014944014 0.5406928163158655
-0.7888049321378492 -0.3285166667278814 0.5194839542440215
-0.767137418981961 -0.4110445576960854 0.4924860931905836
-0.7422109733794852 -0.4869397562237359 0.4604481999137854
-0.7150678470233933 -0.5558117815472502 0.4239707981059549
-0.6866800393033012 -0.6176525462996956 0.3833743023103121
-0.6578729379624706 -0.6727226542873487 0.3385962609143982
-0.629262743879639 -0.7214162916900622 0.2891140488617361
-0.601193911930698 -0.7641108252495644 0.2338814378994049
-0.5736596419732448 -0.8009874853001575 0.1712707317776683
-0.5461876700113278 -0.8317881816460782 0.09903257040745334
-0.5176772222419258 -0.8554559071776062 0.01433472869718702
-0.4862142547720332 -0.8695990645734838 -0.08598351789382663
-0.4491586445686515 -0.8696892155718116 -0.2046880072875258
-0.4050246436590023 -0.8478095684383713 -0.3423068414350498
-0.3628521513581671 -0.7906068265653421 -0.4932333748267935
0 0 0
0 0 0
0 0 0
-0.2900013426659035 0.7595816421249194 -0.582181200485539
-0.3688712003334277 0.8271810444726718 -0.4239169225563842
-0.4106205324800469 0.8691536954010425 -0.2756131928564271
-0.4425014454429698 0.8852225153160324 -0.1434348951909502
-0.4697489413914703 0.8822834029358976 -0.03019816162359749
-0.4945647540156269 0.8666795612926649 0.0653623907382221
-0.5184164313323355 0.8425133620459356 0.1463408299098356
-0.5422635704327901 0.8119487438252905 0.2160774342267483
-0.5666516428469831 0.7758352855821059 0.2774626556936028
-0.5917985336149113 0.7342163800392987 0.332717301764168
-0.617652553056332 0.6866800210712609 0.3833743240810046
-0.6439230696308169 0.6325992884207907 0.4303268765563396
-0.6700953805986846 0.5713153525741406 0.4738891735557894
-0.6954430595667497 0.502300087599483 0.5138614335577145
-0.7190519607463894 0.4253140925338352 0.5496109537107976
-0.7398694279413194 0.3405544792114944 0.5801860704004985
-0.7567878799454582 0.248768659704226 0.6044718841407112
-0.7687618254592536 0.1513015191609302 0.6213800013004522
-0.7749435584903954 0.05004816615363916 0.6300457620037613
-0.77481026738105 -0.05269625656287046 0.629993773068564
-0.7682508809185223 -0.154469910041776 0.6212323485295975
-0.7555884301021182 -0.2529139259174174 0.6042521579381036
-0.7375316397079029 -0.3460187621288081 0.579929389395484
-0.7150699798998421 -0.4322959918530349 0.5493588074053602
-0.6893404813830682 -0.5108491743315453 0.5136563265563246
-0.6614964595578542 -0.5813469067367375 0.4737702059227139
-0.6325993083278145 -0.6439230616265522 0.4303268592693902
-0.6035403477571994 -0.6990368984552835 0.3835185304872971
-0.5749873094781801 -0.7473184635971402 0.3330235846090378
-0.5473424315165257 -0.7894074614963161 0.2779426602656005
-0.5206964937487213 -0.8257720725363658 0.2167386574120601
-0.4947635472147495 -0.8564720556988186 0.1471891645282279
-0.4687864999893372 -0.8808119325092214 0.06640449515746093
-0.4414252516497406 -0.8968307720293767 -0.02895364479914304
-0.4106878248832074 -0.9006540121528597 -0.1419783817546036
-0.3738719581920203 -0.8861055176352768 -0.2739284039561832
-0.3257481220373144 -0.846139591413728 -0.4218245521912776
-0.2404603071591136 -0.7799870597802532 -0.5777534311938787
0 0 0
0 0 0
-0.3182506043682535 0.7897459592160077 -0.524421464779264
-0.3462916701676226 0.8642093526034961 -0.364999005539966
-0.373409547599832 0.9015661441415483 -0.2185035411590139
-0.3974848877070819 0.9130863555664669 -0.09098940225562301
-0.4196208997052985 0.9075365714206876 0.01719511746102985
-0.440938554546502 0.8909518389815161 0.1085265485026385
-0.4622815500016241 0.8669004578608277 0.1864922644207594
-0.4842158664043845 0.8371135774880364 0.2545110078315513
-0.5070686711697697 0.8021068742678691 0.3154455974813282
-0.5309595515024605 0.7616467056085759 0.3714515452975106
-0.5558117856852635 0.7150678302380559 0.4239708209912531
-0.5813469133866814 0.6614964400052545 0.4737702250629017
-0.6070717490935085 0.6000309955837339 0.5209862721716775
-0.6322693849811434 0.5299171337201093 0.5651754207371638
-0.6560080619512507 0.450731651584418 0.6053878103455225
-0.677182539095084 0.3625669849490059 0.6402882086761571
-0.6945990298882287 0.2661848327533753 0.6683396011687387
-0.7071041555065998 0.1630928661480771 0.6880439159507942
-0.7137420174995632 0.05550049582281873 0.698206292881319
-0.7139067361724716 -0.05386597326815988 0.6981659036156396
-0.7074499797354379 -0.1620660519396267 0.6879310437689451
-0.6947110994988399 -0.266299277220146 0.6681775087393621
-0.6764609029815096 -0.364223723175306 0.6401107140282518
-0.6537774628239248 -0.4541667916555554 0.6052334710347822
-0.6278903398194945 -0.5351973018222219 0.5650819137820399
-0.6000310153571118 -0.6070717424853931 0.520986257098267
-0.571315372630079 -0.6700953724653678 0.4738891608773657
-0.5426667653667202 -0.7249445333486929 0.4242265966842089
-0.5147738391569397 -0.7724839300566354 0.3718554454675631
-0.4880690385228522 -0.813590800064999 0.3160041513730045
-0.4627114169925996 -0.8489738926418204 0.2552282786003439
-0.438558484677572 -0.8789528978038877 0.1873719801876998
-0.4151169100263659 -0.9031454431991012 0.109573078075139
-0.3914766590440173 -0.920003823251109 0.01841169810408106
-0.3662712175360331 -0.9261834558262056 -0.089608042934205
-0.3377900152417688 -0.915867081373767 -0.2169916930641873
-0.3046757937050763 -0.8803687490954619 -0.3634880002782387
-0.2702276043462907 -0.808030628838698 -0.5235107875753874
0 0 0
0 0 0
-0.2993572137844291 0.8300704666405705 -0.4704979053793212
-0.3118126796001364 0.8973848282221877 -0.3122071794773734
-0.3291664921703145 0.9288861513138349 -0.1697643611882699
-0.3471036688124528 0.9366355397287357 -0.0472536645562501
-0.3649595479255661 0.9293182747529946 0.05632115577723414
-0.383020522332125 0.9124281224725646 0.1441187038299208
-0.4016896264951754 0.8889980813315895 0.2198359737507004
-0.4212840332929747 0.8603570046048654 0.2868895047221958
-0.4420008356020534 0.8267274627292878 0.3480760889464835
-0.4639100886718454 0.7876402051837591 0.4054754453805629
-0.4869397586893134 0.7422109562970357 0.4604482248420909
-0.5108491792590997 0.6893404617245942 0.5136563480378951
-0.5351973067428736 0.6278903202745564 0.5650819308389617
-0.5593163183305295 0.556870677517303 0.6140523630526969
-0.5823049507797647 0.4756544689731018 0.6592979375390856
-0.6030582051237853 0.3842064565591178 0.6990752462869536
-0.6203475918673924 0.2832865367764598 0.7313806145540953
-0.6329553013068507 0.1745648767972597 0.7542510791084829
-0.6398469272134502 0.06058496975852942 0.7661105476201612
-0.6403460438146421 -0.055459109990487 0.7660817393007088
-0.6342617960039744 -0.1701056233017123 0.7541724279307407
-0.6219284807995589 -0.2800780535510047 0.7312737166680018
-0.6041446877105142 -0.3826864674548442 0.6989708605786776
-0.5820339216039034 -0.4760802062868914 0.6592299684360622
-0.5568706985754733 -0.5593163124299122 0.6140523493301436
-0.5299171540211699 -0.6322693776381036 0.5651754099173356
-0.5023001080329523 -0.6954430508984515 0.5138614253153643
-0.4749377375533917 -0.7497463931232858 0.4607759666543909
-0.4485084736919436 -0.7962787523710948 0.4059313951258943
-0.4234459050831168 -0.8361388490020653 0.348662287404074
-0.3999417262310043 -0.8702466160011445 0.2876064028458343
-0.3779409671685413 -0.8991437340364145 0.220683417770254
-0.3571201143749611 -0.9227203002881514 0.145094697852671
-0.3368558747284602 -0.9398039708234017 0.05741616571567888
-0.3162439910747769 -0.9475585208543914 -0.04607154941321112
-0.2943791906540476 -0.9407013585516488 -0.1685877994664784
-0.271541777735277 -0.9106880656315776 -0.3113074205035599
-0.2530301512406124 -0.8452196243507029 -0.4707223482857057
0 0 0
0 0 0
-0.2499142546910417 0.8705025237288702 -0.423990827122343
-0.2620222643382852 0.9272981665156638 -0.2673246029974152
-0.2766585915135834 0.9522088258690532 -0.1294541450815646
-0.2913431621480522 0.9565470105859942 -0.01170377753423981
-0.3060451043835594 0.9479490513708393 0.08791467504337161
-0.3211343398206886 0.9311147817291622 0.172910378616741
-0.3369502001688052 0.9085328174442209 0.2470479350916894
-0.3537385989172047 0.8811700120687638 0.3137011531168274
-0.3716565300217217 0.8489973162680697 0.3755994950233928
-0.3907716695925881 0.811344904978018 0.4347607933220651
-0.411044556086693 0.7671374030934449 0.4924861192831106
-0.4322959926893291 0.7150699621790593 0.5493588298134342
-0.4541667923159306 0.6537774441011867 0.6052334907636703
-0.4760802079050907 0.5820339015902 0.6592299849375288
-0.4972217806161981 0.4989981377276457 0.709768525242701
-0.5165548719999143 0.4044913014267194 0.7546905665789592
-0.5328892884000441 0.2992564018175745 0.7915014922788789
-0.5450104824133453 0.1851189744713199 0.817737451356032
-0.551856898394986 0.06496189356615829 0.8314047847337449
-0.5527077421904598 -0.05753664483157762 0.8313866045494409
-0.5473264004771725 -0.1783742749763669 0.8176896901437346
-0.5360107220370997 -0.2937868261447399 0.7914428637906005
-0.5195337030691943 -0.4007396050703543 0.7546472687973277
-0.4989981584714683 -0.4972217771631541 0.709768513077889
-0.4756544905574829 -0.5823049434479577 0.6592979284425
-0.450731672916794 -0.6560080531287127 0.605387804023094
-0.425314113841785 -0.7190519510772997 0.54961094987173
-0.4002735113877562 -0.7725855544401603 0.4928414320567066
-0.3762465447739913 -0.8179375040579961 0.4352203775112188
-0.3536401408434638 -0.8564115922065925 0.3761619804264961
-0.3326447614567339 -0.8891134386460464 0.3143640499395487
-0.3132387373790425 -0.9167730677294577 0.2478076586611114
-0.2951717533433949 -0.9395111267107839 0.1737598308436652
-0.2779264430365251 -0.9564857230362341 0.08883666973112742
-0.2606891933565131 -0.9653629255725885 -0.01075018125720577
-0.2424623565207837 -0.9616048347056493 -0.1285618432549443
-0.2227887013764669 -0.9376734543460202 -0.2667089941374093
-0.2048594995066165 -0.8820810312489421 -0.4242235728630611
0 0 0
-0.08179865667281584 0.828545176895112 -0.5539150382598128
-0.1682739119754033 0.906483879121213 -0.3872607228235929
-0.2004145503235938 0.9515484130218734 -0.23321583499871
-0.2180810049169875 0.9709147014438502 -0.09881962261917278
-0.2314615310967244 0.9727211025750374 0.015466616551882
-0.2436680385300177 0.9633416986485533 0.1122437465690323
-0.2558580612017254 0.9467811289241402 0.1953001444731266
-0.268554679123775 0.9250933334849882 0.2684785068908838
-0.2820392926497994 0.8989619109476134 0.3351437304605527
-0.2964805084163497 0.8681591111710775 0.3979938012329174
-0.3119699762134585 0.8318523037612009 0.4590168609850365