# OOMMF: rectangular mesh v1.0
# Segment count: 1
# Begin: Segment
# Begin: Header
# Title: 
# Desc: time = 7.8e-10
# Desc: stepsize = 7.654487075217995e-14
# Desc: step = 4990
# meshunit: m
# valueunit: (none)
# valuemultiplier: 384000.0000000001
# xmin: 0
# ymin: 0
# zmin: 0
# xmax: 9.357999999999999e-08
# ymax: 9.357999999999999e-08
# zmax: 2.3395e-08
# ValueRangeMaxMag: 1
# ValueRangeMinMag: 0
# meshtype: rectangular
# xbase: 1.16975e-09
# ybase: 1.16975e-09
# zbase: 1.16975e-09
# xstepsize: 2.3395e-09
# ystepsize: 2.3395e-09
# zstepsize: 2.3395e-09
# xnodes: 40
# ynodes: 40
# znodes: 10
# End: Header
# Begin: Data Text
0 0 0
0 0 0
0 0 0
0 0 0
0 0 0
0 0 0
0 0 0
0 0 0
0 0 0
0 0 0
0 0 0
0 0 0
0 0 0
0 0 0
0 0 0
0 0 0
-0.8365462479187754 0.02117795091364206 -0.5474868669549228
-0.8460959519736605 0.03977656770468904 -0.5315444146215994
-0.856235199723013 0.02063724287571109 -0.516173795307143
-0.8613448511656348 -0.01416578898961745 -0.5078231757144919
-0.859671270986183 -0.0534415651737911 -0.5080445895320366
-0.8513177378269489 -0.08854451213905176 -0.5171247225102112
-0.838312452282672 -0.108177548799741 -0.5343499324258326
-0.8268447244858941 -0.08962047259981186 -0.5552440656871817
0 0 0
0 0 0
0 0 0
0 0 0
0 0 0
0 0 0
0 0 0
0 0 0
0 0 0
0 0 0
0 0 0
0 0 0
0 0 0
0 0 0
0 0 0
0 0 0
0 0 0
0 0 0
0 0 0
0 0 0
0 0 0
0 0 0
0 0 0
0 0 0
0 0 0
0 0 0
0 0 0
0 0 0
-0.7828871717644216 0.2323022843950168 -0.5771683679408992
-0.8106314722727557 0.2618475218623596 -0.5237485001939814
-0.8473592593918871 0.244467561236372 -0.4713999332053122
-0.8836625003969949 0.1961775755593802 -0.4250352270574453
-0.9153192018106545 0.114281128568806 -0.3861742902495528
-0.9282084681898705 0.0735436746154346 -0.3647195737887847
-0.9361283707941052 0.03455247081669298 -0.3499568547047406
-0.9395658845775516 -0.008312137219989425 -0.3422672302643624
-0.9380149460998207 -0.05295613064484741 -0.3425253408442587
-0.9315142548589199 -0.09599341866232564 -0.3508082903355474
-0.9205977595378936 -0.135288609960879 -0.3663287555579864
-0.9045129491085727 -0.1762684655649627 -0.3883114123255785
-0.8679830527338128 -0.2576541110244052 -0.4245230020141593
-0.8272459035877306 -0.3068357041103387 -0.4706549327059381
-0.7867619242872292 -0.3255281451792754 -0.5244397974868003
-0.756526616884341 -0.2971408092005773 -0.5825588532098358
0 0 0
0 0 0
0 0 0
0 0 0
0 0 0
0 0 0
0 0 0
0 0 0
0 0 0
0 0 0
0 0 0
0 0 0
0 0 0
0 0 0
0 0 0
0 0 0
0 0 0
0 0 0
0 0 0
0 0 0
0 0 0
0 0 0
-0.7566129097354655 0.3266775597868226 -0.5664085775774925
-0.7942359714074035 0.3549208507189602 -0.4931738146409102
-0.8492549250065302 0.317478737415419 -0.4218688464929157
-0.8830861668629925 0.2960524160980185 -0.3640216872904031
-0.9129541113020373 0.2626198825056167 -0.3123228905627037
-0.9394116592118857 0.2136300780992335 -0.2680819357362342
-0.9602344810705403 0.1523989941454045 -0.2339322293884671
-0.9722062407283021 0.09885282525344584 -0.2122337023857281
-0.978902570000043 0.04817861086947211 -0.1985663110953072
-0.9814260812411365 -0.002646161933866171 -0.1918224306140589
-0.979912284601091 -0.05383203795266048 -0.1920261080627659
-0.9743583404147678 -0.1046711875946834 -0.1991727063422527
-0.9645780653466961 -0.1553737992802986 -0.213185689832197
-0.9492780932309731 -0.2089390907572082 -0.234979909918525
-0.924572447437229 -0.2701670954109687 -0.2686550390317155
-0.8943332945611718 -0.3195887090303927 -0.3130990503014128
-0.8609585397091492 -0.3537395645561474 -0.3655389355041622
-0.8237953657058079 -0.376029060869475 -0.4242208632578718
-0.7647454022409026 -0.4137665702989588 -0.4939247868394902
-0.7242012522572012 -0.3870189146835305 -0.5707441685258668
0 0 0
0 0 0
0 0 0
0 0 0
0 0 0
0 0 0
0 0 0
0 0 0
0 0 0
0 0 0
0 0 0
0 0 0
0 0 0
0 0 0
0 0 0
0 0 0
0 0 0
0 0 0
0 0 0
-0.7607984350537306 0.4075491162189372 -0.5050638168478879
-0.8118802564899882 0.4070075215729821 -0.418563407985897
-0.8515867575571895 0.3968124763478998 -0.3425490519150201
-0.8894956402468015 0.3651567769321692 -0.2746962581515122
-0.9188757276557773 0.3285869814636282 -0.2183987013186808
-0.9432907593879469 0.2847457028856548 -0.1706529458915499
-0.96371143632249 0.232466512145006 -0.1312234286717832
-0.9795356447700584 0.173973253422936 -0.1012088322150992
-0.9899775213436111 0.1156941368629674 -0.08098996190820225
-0.9959433180682805 0.05835486224311447 -0.06849538121457777
-0.9980430558346359 0.001328469420981994 -0.06251634881579925
-0.9964821932423382 -0.05563844522047712 -0.06267058292681392
-0.9912537745995359 -0.112528746190633 -0.06894371344028237
-0.9821214121794352 -0.1696047308465971 -0.08168088523715043
-0.968413488674705 -0.2275130786320836 -0.1020446667113861
-0.9491995400188188 -0.2855942108773115 -0.1321218374888411
-0.9254784391563247 -0.3375901909587602 -0.1718211908502562
-0.8978842487256835 -0.3813390495303072 -0.2199645544028313
-0.8652905849140453 -0.4180913695560322 -0.2765353690974626
-0.8238468641241143 -0.4502831339540183 -0.3442694348172807
-0.7807046768944638 -0.4616125395445309 -0.4212054971274223
-0.726270370465401 -0.4624897805058461 -0.5085612567938131
0 0 0
0 0 0
0 0 0
0 0 0
0 0 0
0 0 0
0 0 0
0 0 0
0 0 0
0 0 0
0 0 0
0 0 0
0 0 0
0 0 0
0 0 0
0 0 0
-0.6564065372779929 0.497654483351264 -0.5669836620389522
-0.7078076658292054 0.5330274825417822 -0.4635623054655992
-0.7877811035427988 0.4978547668556527 -0.362686592004713
-0.8372749844980463 0.4708079438503802 -0.2780476224339512
-0.8738722348827258 0.4404303966944594 -0.2058358150775293
-0.904561837823964 0.4013039494408729 -0.1439549294594984
-0.9297956798274347 0.3562649822439251 -0.0924946279573764
-0.9508285773446843 0.3056745473470138 -0.04988073384465433
-0.9682185646160053 0.249629471845608 -0.01542523643268471
-0.9818289122134294 0.1894609880588728 0.01079449607665068
-0.9913790194312593 0.1277743515126965 0.02900611878593517
-0.9970173312852911 0.06579655538178961 0.04033924164689247
-0.9989466354847865 0.003827392116686391 0.04572713115000023
-0.9972713586464131 -0.05805151832662166 0.04560546506188073
-0.9919974883008272 -0.1197600367118072 0.03998145584687815
-0.9830306735016008 -0.1812243021398265 0.02843320715151945
-0.9701822086836344 -0.2421689764232263 0.01003338486608029
-0.9533474133064104 -0.3014311216624331 -0.01637035232679048
-0.9328915827781162 -0.3565189178022097 -0.05106423436106478
-0.9089380537670337 -0.4062153403160693 -0.09391864408144095
-0.8808029093441077 -0.4505686131821475 -0.1455134347957998
-0.8470453610947047 -0.4893953301040581 -0.2073797654552647
-0.8071107907668388 -0.519994584578309 -0.2796029388918497
-0.7536371021454079 -0.5475291636966867 -0.3636522145834922
-0.6685579777008335 -0.5830101963609597 -0.4616593347823981
-0.6131578513899071 -0.5496052385516802 -0.5674253528310685
0 0 0
0 0 0
0 0 0
0 0 0
0 0 0
0 0 0
0 0 0
0 0 0
0 0 0
0 0 0
0 0 0
0 0 0
0 0 0
-0.635287353697484 0.5440035447484085 -0.5481515497863833
-0.6984378108427506 0.5674838011775304 -0.4360582068787221
-0.7498064479614895 0.5725743399998861 -0.3315854577165111
-0.8015700405464471 0.5494102194045288 -0.2358683550462713
-0.8421758348030796 0.5162965237826341 -0.1554920023785895
-0.8745201345776936 0.4768363648274385 -0.08855289603601893
-0.9016335197186998 0.4312625558514638 -0.03270480148436071
-0.924657516342731 0.3805637734348985 0.01340491774994162
-0.9442446932839224 0.3252465208983383 0.05115329753473712
-0.9606166091956978 0.2656897770955331 0.08139209104259049
-0.9736391514541832 0.202750363716835 0.1044944628593697
-0.9830612930002393 0.1377786562276496 0.1208616402867362
-0.988751707163476 0.07181835406198234 0.1311952194294386
-0.9906747098931545 0.00548260626561681 0.1361380189610873
-0.988833618371555 -0.06084080901769338 0.1360384913775865
-0.9832507926650392 -0.1268214498761364 0.1308976645127254
-0.9739700329208145 -0.1920771822618341 0.120369144827821
-0.9610821487229909 -0.2560164653471614 0.1038107551130597
-0.9447833281696012 -0.317649838695538 0.08051734464989259
-0.925378980828376 -0.3757193343761621 0.05008716020068432
-0.9029918435236596 -0.4294849719113359 0.01218152010468218
-0.8773115864572553 -0.4787152379561516 -0.03400148844445565
-0.8475355568521487 -0.5230836652446951 -0.08981625145536414
-0.8123261810594963 -0.5617798914914282 -0.1566190572094361
-0.7683453035213632 -0.5946930526862426 -0.2366129067556991
-0.7124729729057131 -0.6183778109140782 -0.3316491306305611
-0.6568648106657951 -0.6148015722856002 -0.4365176367847495
-0.5897192590499486 -0.5925100502132979 -0.5487832321616744
0 0 0
0 0 0
0 0 0
0 0 0
0 0 0
0 0 0
0 0 0
0 0 0
0 0 0
0 0 0
0 0 0
-0.5928781451362531 0.5895008761346288 -0.5486202895047724
-0.6614689571777099 0.6170197588760356 -0.4263161219644306
-0.7148071737841486 0.6249488025085747 -0.3138306845256144
-0.7588252677387824 0.6153704942275096 -0.2133151843525327
-0.7984174469429862 0.588936538981381 -0.1252331165054814
-0.8323768754173936 0.5518290470155064 -0.05131705506295545
-0.8615139253756504 0.5076390098291741 0.009817947010103823
-0.8869779486156122 0.4578600359257634 0.06028520690599196
-0.9093786100658935 0.4033248388153004 0.1017822084120549
-0.9289351080206465 0.3444990051605151 0.1356466016164229
-0.9455761100453672 0.2817729365327247 0.1627569732736388
-0.9590247374499362 0.2157669658905201 0.1836196323639691
-0.9689295406233137 0.1473739756291265 0.1986364936630702
-0.9749975598983952 0.0774911040464823 0.2082663846755684
-0.9770449078322034 0.006876416694973882 0.2129224341693409
-0.9749999229227956 -0.06382806541324468 0.212840617284729
-0.9688997099740491 -0.1340202907227057 0.2080190224157501
-0.9588922686485869 -0.203063058540326 0.1982196039301202
-0.9452418245865328 -0.2702173922497719 0.1830312923465666
-0.928319231316631 -0.3346322900412099 0.1620019605729329
-0.9085316444430033 -0.3954929335397629 0.1347426827913268
-0.8861626798318072 -0.4522841438475195 0.1007708196722924
-0.8612317310953904 -0.5047487182353184 0.05923374708930218
-0.8334092623834598 -0.5525861206068206 0.008807989904700374
-0.8019127195930817 -0.5951564078936499 -0.05220000285396652
-0.7653474329103107 -0.6311852283753411 -0.1258908829834995
-0.722659484659917 -0.6573369937727769 -0.213708553522854
-0.6749746411926097 -0.6676167476349315 -0.3141609651504512
-0.6172866271534206 -0.6611233895828228 -0.4264658059962987
-0.5442862144458056 -0.6349434044517951 -0.5482694500949491
0 0 0
0 0 0
0 0 0
0 0 0
0 0 0
0 0 0
0 0 0
0 0 0
0 0 0
-0.5499874016077969 0.6130050229502054 -0.5672201511851653
-0.6151626440567245 0.6566591571752839 -0.4363183157454943
-0.6679619796014267 0.6747173724228991 -0.3139797145639849
-0.7114030845204045 0.6721214125605373 -0.2053252495736495
-0.7485273067532879 0.6537104118390226 -0.1112185618407472
-0.7818390407256349 0.6227145173984998 -0.0308924621610455
-0.8119876036879622 0.582543164363782 0.03632620417979449
-0.8394336946348789 0.5356131217393217 0.09203073471560881
-0.8645328719892741 0.4832308209551114 0.138097382049862
-0.8873824664218257 0.4260670305585455 0.1761228087390725
-0.9078362363321525 0.3644952277890285 0.2073079760194856
-0.9255577669148489 0.2988523427197982 0.2324437509473764
-0.9400854784655572 0.22964120169452 0.2520004199648889
-0.9509222320142148 0.1575901597481289 0.2662935414381329
-0.9576336009624252 0.08355959686881789 0.2756005806939792
-0.9599177723764379 0.008441445122142696 0.2801546220930621
-0.9576413792477579 -0.06688087363897413 0.2800891599004479
-0.9508538484870109 -0.1415312434614735 0.2754012816631192
-0.939788130111133 -0.2146312717321633 0.2659542962556795
-0.9248451352065682 -0.2853068969652766 0.2515182904458222
-0.9065498187390274 -0.3527382367470552 0.2318257157452867
-0.8854662703039736 -0.4162642137962079 0.206575866128148
-0.8620838740785151 -0.4754741454022161 0.1753160891299222
-0.8367193668455563 -0.5301483182711382 0.1372714893189935
-0.8094464896327895 -0.5800601704979059 0.09125009053745496
-0.7800333548447889 -0.6247212422848835 0.03565578168565109
-0.7479170907750541 -0.663049238699136 -0.0313963753811629
-0.7123666529512347 -0.6928881589801451 -0.1115336312874268
-0.6724276092804612 -0.7110692875959952 -0.2054789004133682
-0.6252620101722507 -0.7144785443727285 -0.3139551373466954
-0.567808325352255 -0.6981155590233853 -0.436151776231776
-0.4979970597417658 -0.6560923015008531 -0.5670465769228038
0 0 0
0 0 0
0 0 0
0 0 0
0 0 0
0 0 0
0 0 0
0 0 0
-0.5833729175949609 0.6684134744432199 -0.461410301358222
-0.6187306099703032 0.7122748052886975 -0.3314167075401057
-0.6576810922331054 0.7224084608584587 -0.2134984697818257
-0.6932268761149982 0.7120652830389351 -0.1113531810166255
-0.7254167099914041 0.6878727867497164 -0.02452806789018599
-0.7553699788775186 0.6534875551396168 0.04868480551694344
-0.7837169261767218 0.6112973784807277 0.1100149748293369
-0.8106990857971217 0.5628182188095524 0.1612533561317506
-0.8362977352293378 0.5088785630243646 0.2040801463752349
-0.8602744140234571 0.4498826394595095 0.2398615085617986
-0.8822050809073616 0.3860558398552193 0.2695831666386388
-0.9015216040812496 0.317650274310129 0.2938657867215406
-0.9175666803453467 0.2451000962389564 0.3130452522298874
-0.9296711054684496 0.1690900324598462 0.3272922189417254
-0.937246204380107 0.0905289510151923 0.3367106493759456
-0.9398687932810128 0.01048002212262273 0.3413748973676906
-0.937341824792841 -0.06990839733124445 0.3413255329983433
-0.9297252185863035 -0.1494619206405387 0.3365592848267461
-0.9173352851117288 -0.2270376793937522 0.3270319049029961
-0.9007106672930209 -0.3015897792728889 0.3126721907408633
-0.8805437746442888 -0.3722460889414496 0.2933862815521226
-0.8575844136329374 -0.4383816447834552 0.2690176704434165
-0.8325366454718283 -0.4996443434032508 0.2392451965069495
-0.8059741036638992 -0.555886360077716 0.2034603128443514
-0.7782779162151182 -0.6070124430752286 0.1606840971711102
-0.7495840659288399 -0.6527805997337852 0.1095500648871902
-0.7197340810982104 -0.6925628625291522 0.04836872906269753
-0.6882218701206685 -0.7250806356806641 -0.02467243904711116
-0.6540626446800334 -0.748201887487609 -0.1113372911208951
-0.6157270840322475 -0.7585103464930886 -0.2134062141833732
-0.5729377195375074 -0.7495020228113586 -0.3316460271627588
-0.5333995784309785 -0.7075118516963135 -0.4635858814059239
0 0 0
0 0 0
0 0 0
0 0 0
0 0 0
0 0 0
0 0 0
-0.4628791807226681 0.7262015821843758 -0.5083051505605859
-0.547890185015823 0.753504849968233 -0.3633824242278063
-0.5950421633102089 0.7681544755338123 -0.2363546606277939
-0.6315296509174841 0.7651019500820514 -0.1256555052223421
-0.6633936217298061 0.7476202236523405 -0.03119140641642753
-0.6929101929341304 0.7193883561797854 0.0485371766889238
-0.7212828033680366 0.6829101204485876 0.1156930635537022
-0.749064907376794 0.6396830048936034 0.1723583992350954
-0.7763630414193397 0.5905127120560545 0.2203523651298428
-0.8029739154942835 0.5357471440127825 0.2611664004383512
-0.828461990215646 0.4754819501169061 0.2959183094723177
-0.8522058832113271 0.4097477618343615 0.3253488962509824
-0.8734393206829076 0.3386774132419666 0.3498590614014597
-0.8913058028418146 0.2626418260054406 0.3695852229906322
-0.9049392851211158 0.1823297587062158 0.3845006493292518
-0.9135683384860549 0.09875569905062563 0.3945126142734228
-0.9166252102133299 0.01320653971775562 0.3995294874099425
-0.9138355662172299 -0.07285214488530223 0.3994960862161794
-0.9052686637591925 -0.1578936148128724 0.3944087382614257
-0.8913358671218655 -0.2404577333354982 0.3843181630644922
-0.8727359660639169 -0.319273912098343 0.3693184298026579
-0.8503577574625607 -0.3933614768930195 0.3495117062700282
-0.8251614105243125 -0.4620863967063096 0.3249381611330149
-0.7980656267829471 -0.5251530715920052 0.2954750526610046
-0.7698601641256929 -0.5825237528955418 0.2607324394946942
-0.741144061737586 -0.634284000412721 0.2199756499514159
-0.712274063726383 -0.6804791049100778 0.1720867395341174
-0.6833027005951153 -0.7209311376806403 0.1155669246883331
-0.6538820172734606 -0.7550351378273318 0.04858238500167774
-0.6231103228116024 -0.7815205506199925 -0.030970220603733
-0.5893346541768234 -0.7981154940633827 -0.1252849692590683
-0.549813489134267 -0.801286082036846 -0.2358934969430987
-0.498268984902941 -0.7875189774002491 -0.362687026123431
-0.4079884173453467 -0.7605683011982182 -0.5050557499172691
0 0 0
0 0 0
0 0 0
0 0 0
0 0 0
-0.3874125168429546 0.7242072330619097 -0.5704694780391143
-0.4619826474114051 0.7806448958825126 -0.4209104180503606
-0.5203473120905687 0.8069861834872433 -0.2793062377764112
-0.5621252552154017 0.8121416770027774 -0.1563364766269706
-0.5955018807684002 0.8016730048056651 -0.05194134544997309
-0.625071964980467 0.77974187749678 0.03588374385781949
-0.6531397745061481 0.7492430891988456 0.1097416431708037
-0.6808481826707526 0.7118851347950115 0.1722361954172849
-0.7086698634454621 0.6684960521167512 0.2256104007986049
-0.7366359598305943 0.619335091255049 0.2716459228933108
-0.7644582163214274 0.5643289547145862 0.3116672365992349
-0.7915953249877923 0.5032572377954829 0.3465674451877029
-0.8172914392480409 0.4359165400066449 0.3768440970487665
-0.8406119301031247 0.3622760493100006 0.4026507755669132
-0.8604989660301947 0.2826185543147149 0.4238729552802651
-0.8758629202223096 0.1976439709126898 0.4402283563578238
-0.8857108249913952 0.1085083338867087 0.4513781961617019
-0.8892933072962407 0.01678172828523962 0.4570293067122431
-0.8862357631437715 -0.07567505459214294 0.4570114421296825
-0.8766159268537805 -0.1668969499179875 0.4513202021784086
-0.8609619173247421 -0.2550272987591995 0.4401200447651632
-0.8401694519858304 -0.3385098035790429 0.4237055638420467
-0.815362806146815 -0.4162187834564347 0.4024244260111903
-0.7877386468982505 -0.4875050922368466 0.3765721832876885
-0.7584293341806668 -0.5521568387679737 0.3462770140451534
-0.728405179696117 -0.6102936519792685 0.3113961344424083
-0.6984128874413013 -0.6622241963949905 0.2714379346460487
-0.6689314364536104 -0.7082910624815428 0.2255094324698547
-0.6401204159534065 -0.7487090445852496 0.172280642081111
-0.6117347632329343 -0.7833832386539191 0.1099603603506358
-0.5829797727668182 -0.8116755756750057 0.03629523932138318
-0.5522657175186703 -0.8320868143368196 -0.0513235877583654
-0.516736100813125 -0.8419095512975658 -0.1554738227174551
-0.4712559283777137 -0.8370365102213572 -0.27800670949693
-0.4074725988748777 -0.811675915411101 -0.4185072155981346
-0.3271673347777564 -0.75644620975272 -0.5663485382740583
0 0 0
0 0 0
0 0 0
0 0 0
-0.4141277916085878 0.7647577574756835 -0.4936028206950979
-0.4506330938114816 0.8237926180197768 -0.3439411828467386
-0.4897371834491848 0.8469266087619871 -0.2070575053413396
-0.5234245156035482 0.8473573905230068 -0.08951105625134013
-0.5529326196867645 0.8331764031279061 0.009088418849057426
-0.5804173622204782 0.8091621767801592 0.09150003989843714
-0.607383617111341 0.7779439953584119 0.1608983584457422
-0.6346707465184086 0.7407615422227779 0.2201485432100267
-0.6626264772298803 0.6979826667676027 0.271562789361694
-0.6912314208720882 0.6494553294760713 0.31687047482257
-0.7201671162796313 0.5947460755729094 0.3572624108692417
-0.7488471900937265 0.5333190093761436 0.393444684964454
-0.7764315945380017 0.464697363307877 0.4256880777492862
-0.8018463639246899 0.3886297947584637 0.4538824641762969
-0.8238337585452732 0.3052602714676423 0.4776129237621916
-0.8410544252692509 0.2152764708308037 0.4962695787993091
-0.8522486820873811 0.1199939574047417 0.5091891928023122
-0.8564375421853677 0.02133094801167554 0.5158097779146968
-0.8531146280083043 -0.07835202121255261 0.5158065453735148
-0.8423650321762931 -0.1765304579237049 0.509173987937207
-0.8248634924970074 -0.2708445496896791 0.4962292299422048
-0.8017502672708139 -0.3593844261847549 0.477534651252694
-0.7744307339247225 -0.4408592671492116 0.4537622118703526
-0.7443641217115242 -0.5146276511268699 0.4255354685619889
-0.7128932300466246 -0.5806129411472251 0.3932834284915383
-0.6811361152383302 -0.6391508599260229 0.3571271073075535
-0.6499316926040819 -0.6908151950886521 0.316801453884637
-0.6198147667134019 -0.7362491197210818 0.2716006050691762
-0.5909922710955985 -0.7760045294423701 0.2203295390777001
-0.5632954075597759 -0.8103677487749815 0.1612525831341431
-0.5360870313327357 -0.8391287595955836 0.09205226589514928
-0.5081103035261219 -0.8612355379460579 0.00986243526498593
-0.4773075521814005 -0.8742699227820717 -0.08848504251696625
-0.4409059828340446 -0.8736536409367676 -0.2057455466810253
-0.3972982590417969 -0.8514041911257997 -0.3424397709025326
-0.3554202757266237 -0.7940903679513032 -0.4930485930710826
0 0 0
0 0 0
0 0 0
-0.2975094056433992 0.7566220752874586 -0.5822466734481269
-0.3763730561113143 0.8238171015932207 -0.4238734548847969
-0.418424820738846 0.86524228161704 -0.2761819391122509
-0.450899629991495 0.8806903211150217 -0.1451691495044745
-0.4790511134315232 0.8771407914790796 -0.03367584658877782
-0.5050957764399481 0.8610074884657266 0.05953453979386213
-0.530511487946503 0.8364446066401445 0.137542652218868
-0.5562690370845901 0.8056502027022057 0.2036971017635671
-0.582927790439052 0.7694875661252365 0.2609292561452312
-0.6107193608025545 0.7279841454172772 0.3115460581711718
-0.6395970095282781 0.6806675266747529 0.3572217568023504
-0.6692503301839334 0.6267889538699031 0.3990483715733819
-0.6990955517384713 0.5654940557475172 0.437586428552927
-0.728256104848184 0.4959888916494112 0.472903864555724
-0.7555548095172727 0.4177308595713591 0.5046165462775574
-0.7795469585250153 0.3306489608950736 0.5319565810415409
-0.7986261003005507 0.2353650182440427 0.5538949901431818
-0.8112213300410039 0.1333520714502812 0.5693304653067697
-0.8160693122495192 0.02694500885911852 0.5773255962645153
-0.8124930215108255 -0.08086251348373882 0.5773355557293354
-0.8005829286270595 -0.1868253412305643 0.5693533755630183
-0.7811962467070107 -0.2879440456616921 0.5539139379893379
-0.7557716434082575 -0.3818821930303244 0.5319541462065418
-0.7260409655829836 -0.4671821170443747 0.5045843693667733
-0.6937444851659851 -0.543261706011674 0.472848081399372
-0.6604224411454807 -0.6102553476984021 0.4375278389279316
-0.6273027670174512 -0.668786476958882 0.3990186546130085
-0.5952656007511952 -0.7197399606763815 0.3572579650167071
-0.5648494126219417 -0.7640663410592324 0.311685366228515
-0.5362649320633883 -0.8026155078202492 0.2612054158042905
-0.5093913261945829 -0.835971054793882 0.2041393454102564
-0.4837375574677367 -0.8642367222611547 0.1381769278513715
-0.4583612627548616 -0.886712188339798 0.06038582495432686
-0.4317605108353401 -0.9013996053054202 -0.03258240074700272
-0.4018027322779247 -0.9043632775761443 -0.1438110792175881
-0.3656622790412248 -0.8893380688482615 -0.2745339632606896
-0.3179988649210155 -0.8491458198177937 -0.4216966902821414
-0.2328518253745069 -0.782838648059299 -0.5770127195516996
0 0 0
0 0 0
-0.3258572620224218 0.7868626183561651 -0.5240842151991701
-0.3540595413500239 0.8609856731540484 -0.3651650473450056
-0.3816555143919698 0.8978415229442613 -0.2195897721009099
-0.4065353163450533 0.9088324489362879 -0.09355541846785978
-0.429815320454316 0.9028299409626772 0.01252549416516942
-0.4526309008873675 0.8859491824563985 0.1010906210621366
-0.4758421928200439 0.8618213973521297 0.1756077634907809
-0.5000372893635414 0.8322261258174671 0.2395044566449868
-0.5255731961761271 0.7977069757187252 0.295696459821376
-0.5526050353968532 0.7580221872513827 0.3464535156246382
-0.581088633119759 0.7124377577840471 0.3934062045045158
-0.610756425558141 0.6599202213011197 0.4375864373553224
-0.6410723308363743 0.5992902990228434 0.4794553202678311
-0.6711764395923505 0.5293902549585927 0.5189105365002828
-0.6998403874940654 0.4493039958134458 0.555292131565203
-0.7254688696588341 0.3586445662248751 0.5874257351132179
-0.7461943975934918 0.2578808176805377 0.6137519082434716
-0.7601053469977598 0.1486142663133658 0.6325770003039588
-0.7656025840295682 0.03366298843489906 0.6424324762470209
-0.7617963826740687 -0.08318354608495665 0.6424537096207281
-0.748779098090229 -0.1977538455666636 0.6326320248191507
-0.727627127214623 -0.3062421364248148 0.6138196132573146
-0.700127370398517 -0.4058131495685482 0.5874839171042153
-0.6683692943108664 -0.4948664625516793 0.5553284349499685
-0.634370903455887 -0.5729634777121173 0.5189281357342236
-0.599835374818907 -0.6405494904738627 0.4794724949040722
-0.5660485104985777 -0.6986180958444763 0.437632082828692
-0.5338766051205087 -0.7484133135116277 0.3935140183825038
-0.5038130516202649 -0.7912024455222714 0.3466570339927532
-0.4760323558927614 -0.8281073321946831 0.2960260841692693
-0.4504252973827815 -0.8599554981562757 0.2399866510213096
-0.4266009294921723 -0.8870975717186904 0.1762655530931012
-0.4038503999791995 -0.909127259035772 0.1019435202195039
-0.3810829941757108 -0.9244410062810127 0.01358592861100423
-0.3567815305922218 -0.9296175744507713 -0.09229357886947137
-0.329106092749899 -0.9187419896620503 -0.2181795960824731
-0.2965803897131485 -0.8830041543002886 -0.3637907859278857
-0.2623899731811525 -0.8106058100670473 -0.5235166880430263
0 0 0
0 0 0
-0.3071362804303385 0.8273518122910157 -0.4702725634588816
-0.3198867669367002 0.8943648896490992 -0.3127041741034797
-0.3378905611373176 0.9254415717157093 -0.1714288949817549
-0.3568279752971262 0.9327941056168366 -0.05068483571876844
-0.3760435584068981 0.925227695931494 0.05044752582610802
-0.3958381893231368 0.9083311448719703 0.1350801951766253
-0.4166354680219035 0.8852189114789299 0.2068873257264136
-0.4387828578534885 0.85729078637163 0.2692992967986305
-0.4625204551025355 0.8248209920059895 0.3251848086211872
-0.4879737041069163 0.7873505234856742 0.3767768799528571
-0.5151312029520225 0.7439277812972807 0.4256892058289792
-0.5437990987205346 0.6932607031375939 0.4729398880575654
-0.5735320178133552 0.633842724618829 0.5189454932752764
-0.6035465919453045 0.5641113956662023 0.5634801191086845
-0.6326362074161084 0.4826926489601054 0.6056230145115347
-0.6591271852381803 0.3887642766564184 0.6437497113597836
-0.6809414336720757 0.2825207612325953 0.6756484169900587
-0.6958374075271768 0.1656269640650902 0.6988404761177175
-0.701853624338889 0.04143680616732699 0.7111149563164989
-0.6978537403966699 -0.08527889343066863 0.7111453208378841
-0.6839264787685504 -0.2091743078508644 0.6989210832235371
-0.6613929078830748 -0.3254473866446903 0.6757539640491288
-0.6324123397345838 -0.4307053821297682 0.6438536373710092
-0.599423910642615 -0.5232654519605859 0.6057097012054514
-0.5646776542918965 -0.6029511616417778 0.5635503911969467
-0.5299711263988726 -0.6706367749546496 0.5190153381759889
-0.4965764624611884 -0.7277701953251871 0.4730352626664002
-0.4652852904180853 -0.775996005207273 0.4258401089879999
-0.4364999647810265 -0.8169021889436887 0.3770127245136058
-0.4103231899975126 -0.8518590843186193 0.3255318420893843
-0.3866210612486337 -0.8818974330818228 0.269779674035446
-0.3650493017850557 -0.9075654609124461 0.2075185327266507
-0.3450423212306004 -0.9287004058026982 0.1358725609595326
-0.3257808975734124 -0.9440472584990685 0.05139630820063011
-0.3062032893600332 -0.950672095707718 -0.04961967379770439
-0.2852734407043214 -0.9431815541685051 -0.1703749391929466
-0.263151901634026 -0.9129000866128413 -0.3120328645009403
-0.245008184396933 -0.8473660695670625 -0.4711069238771449
0 0 0
0 0 0
-0.2579358775965637 0.8680948738414836 -0.4241230635778114
-0.2704479106617367 0.9246095981214394 -0.2682443264645331
-0.2858804125611604 0.9491698917082575 -0.1317152473648922
-0.3017296140025733 0.9532596576734451 -0.01597701743641762
-0.3179672104138949 0.9446445176088381 0.08089244991450498
-0.334974487548899 0.928133954043612 0.1623559547498097
-0.3531104670711081 0.9063203188636076 0.2321561493042812
-0.3726527962074617 0.8802704625439935 0.2936899832329027
-0.3938062932550837 0.8500398427920133 0.3497840320237899
-0.4167044233142392 0.814998978910813 0.4026587736094654
-0.4413873435687842 0.7740199128925874 0.4539497630608951
-0.4677529114096927 0.7255831631034552 0.5047140648808393
-0.4954786847643723 0.6678666227040591 0.5553872947971006
-0.5239160889785133 0.5988816916787008 0.6056836229266195
-0.5519698955527993 0.5167277745068186 0.6544628648415902
-0.5780026470561006 0.4200282908317959 0.6996350297812856
-0.5998430517911131 0.3085580479061719 0.7382277726354216
-0.6150075960343141 0.1839388055700642 0.7667673523472107
-0.621209453183416 0.05008033575513746 0.7820426940047539
-0.6170638595107975 -0.08707823179760964 0.7820802866922549
-0.6026483468868067 -0.2207454226158486 0.7668679341247413
-0.5795190333922402 -0.3449328603508613 0.7383623851377427
-0.5501678431937386 -0.455666630226575 0.6997737251522859
-0.5172999760925473 -0.5512855353669319 0.6545876512964818
-0.4832865606984597 -0.6320194159412215 0.605793329545292
-0.4499098183060657 -0.699289697521554 0.5554953414134233
-0.4183406597029036 -0.7550660938976317 0.5048428332516085
-0.389237410773561 -0.801414294851359 0.4541248353285608
-0.3628768794677776 -0.840230981450703 0.4029047879563054
-0.3392682178302215 -0.8731044335294125 0.3501224421849997
-0.3182290415691068 -0.9012286509273255 0.2941380557658596
-0.2994182467968144 -0.9253039497140918 0.2327258346824062
-0.2823263765088997 -0.945360387711655 0.1630507726845345
-0.2662324775231335 -0.9604402117924381 0.08169986220300467
-0.2501645763668024 -0.9680855428891324 -0.0151018667810154
-0.2329985544565376 -0.9636289625616669 -0.1308850493123214
-0.214164598644381 -0.9393893162438431 -0.2677335190341608
-0.1967199325231514 -0.8837089575692748 -0.4246878223588612
0 0 0
-0.08992269646720934 0.8270520928016769 -0.5548862446055333
-0.1765415942006565 0.9046354341511855 -0.387901787563793
-0.2092061525706672 0.9493238950156296 -0.2345568760001116
-0.2277862029672321 0.9683933160610532 -0.1016259373686048
-0.2424566881377905 0.9701060669992148 0.01043902047936251
-0.2563258005197976 0.9609576525103641 0.1041992037860869
-0.2705545105506273 0.9450738044923936 0.1834005476627116
-0.2856773144427334 0.9246359476811806 0.2518667033740506
-0.3019984632864401 0.900460762253804 0.3129973543241638