# OOMMF: rectangular mesh v1.0
# Segment count: 1
# Begin: Segment
# Begin: Header
# Title: 
# Desc: time = 8.599999999999999e-10
# Desc: stepsize = 5.037019259009308e-14
# Desc: step = 5502
# meshunit: m
# valueunit: (none)
# valuemultiplier: 384000.0000000001
# xmin: 0
# ymin: 0
# zmin: 0
# xmax: 9.357999999999999e-08
# ymax: 9.357999999999999e-08
# zmax: 2.3395e-08
# ValueRangeMaxMag: 1
# ValueRangeMinMag: 0
# meshtype: rectangular
# xbase: 1.16975e-09
# ybase: 1.16975e-09
# zbase: 1.16975e-09
# xstepsize: 2.3395e-09
# ystepsize: 2.3395e-09
# zstepsize: 2.3395e-09
# xnodes: 40
# ynodes: 40
# znodes: 10
# End: Header
# Begin: Data Text
0 0 0
0 0 0
0 0 0
0 0 0
0 0 0
0 0 0
0 0 0
0 0 0
0 0 0
0 0 0
0 0 0
0 0 0
0 0 0
0 0 0
0 0 0
0 0 0
-0.836910235199316 0.0212068602389087 -0.5469291794167068
-0.8464556694205083 0.03973529476517806 -0.5309744871985875
-0.8565861619896624 0.02054223774503594 -0.5155949607552868
-0.8616860632122044 -0.01430777751522861 -0.5072399983917146
-0.8600032561578325 -0.05362861278575309 -0.5074626797002914
-0.8516414839233984 -0.08877840637707145 -0.5165512340725735
-0.8386287942568922 -0.1084644238489437 -0.5337951050752968
-0.8271540752134395 -0.089973980583089 -0.5547258950831777
0 0 0
0 0 0
0 0 0
0 0 0
0 0 0
0 0 0
0 0 0
0 0 0
0 0 0
0 0 0
0 0 0
0 0 0
0 0 0
0 0 0
0 0 0
0 0 0
0 0 0
0 0 0
0 0 0
0 0 0
0 0 0
0 0 0
0 0 0
0 0 0
0 0 0
0 0 0
0 0 0
0 0 0
-0.7832111854884917 0.2324421770465133 -0.576672240753435
-0.810945683709977 0.2619240714100589 -0.5232235458082287
-0.8476559454270302 0.2444985746290642 -0.4708501302819856
-0.8839384783931655 0.1961766268821348 -0.4244614204861523
-0.9155750373184951 0.1142614401821856 -0.3855731763579104
-0.9284546088645391 0.07348106007514989 -0.3641051676211521
-0.9363646329958412 0.03444559778583068 -0.3493347604629974
-0.9397920905258841 -0.008461361089553334 -0.3416419645674399
-0.9382317424886838 -0.05314653093975555 -0.3419015116019772
-0.931722592014108 -0.09622506251516183 -0.3501910176952922
-0.9207981723171214 -0.1355618377945148 -0.3657235485872103
-0.9047049079302084 -0.1765798758983345 -0.38772229365194
-0.8681679916897073 -0.2579811030272272 -0.4239458558428363
-0.8274292104267191 -0.3071924452622298 -0.4700996737995332
-0.7869437384609066 -0.3259282610387033 -0.5239182389967527
-0.7567053373943762 -0.2976002764545218 -0.5820920097485059
0 0 0
0 0 0
0 0 0
0 0 0
0 0 0
0 0 0
0 0 0
0 0 0
0 0 0
0 0 0
0 0 0
0 0 0
0 0 0
0 0 0
0 0 0
0 0 0
0 0 0
0 0 0
0 0 0
0 0 0
0 0 0
0 0 0
-0.7568800090093445 0.3268688211228685 -0.5659411857602875
-0.7944899119725701 0.355053912965194 -0.492668751456718
-0.8494862990755948 0.3175767819296588 -0.4213288682989219
-0.8833004786285656 0.2961056381405727 -0.3634579969073601
-0.9131494902580258 0.2626330293892561 -0.3117401166281445
-0.9395873049760398 0.2136097720488382 -0.2674818902526019
-0.960392438698138 0.152348854467482 -0.233315645068839
-0.9723518614144802 0.0987665219181918 -0.2116058405431624
-0.9790372008308754 0.04805406613062684 -0.1979317208472576
-0.9815499770586465 -0.002808627892280517 -0.1911851305555233
-0.98002575407336 -0.05403147827418536 -0.1913899702399471
-0.9744618185856995 -0.1049064842799325 -0.1985416673514029
-0.9646719390580901 -0.1556430676887362 -0.2125636033622486
-0.9493630074933131 -0.2092382745469463 -0.2343698454747692
-0.9246512125014787 -0.2704896942345174 -0.2680586885972206
-0.8944101170488165 -0.3199390665639965 -0.3125212572080185
-0.8610348943762246 -0.3541238515735286 -0.3649865866210049
-0.8238704325201575 -0.3764499684095424 -0.4237014653072401
-0.7648170733432144 -0.4142136597834827 -0.4934388395449762
-0.7242705142654159 -0.3875158956252919 -0.570318904476642
0 0 0
0 0 0
0 0 0
0 0 0
0 0 0
0 0 0
0 0 0
0 0 0
0 0 0
0 0 0
0 0 0
0 0 0
0 0 0
0 0 0
0 0 0
0 0 0
0 0 0
0 0 0
0 0 0
-0.7610017634530896 0.407744511204105 -0.5045995735275768
-0.8120644679798508 0.4071575603798976 -0.4180598292949123
-0.8517523179152008 0.3969166663895727 -0.3420162991266215
-0.889640754567437 0.3652215960574818 -0.2741395877758379
-0.9190029343021365 0.3286128093014993 -0.2178238469659347
-0.9434004434320828 0.2847350691191479 -0.1700633521540212
-0.9638039239477396 0.2324224664766301 -0.1306207994917307
-0.9796124655061397 0.1738970748856817 -0.1005943575514302
-0.9900412126838936 0.115583993118039 -0.08036627229313117
-0.9959949165755042 0.0582096372746996 -0.06786578139314137
-0.9980826672290604 0.001148341977727381 -0.06188433313550481
-0.9965097036216853 -0.05585238100256205 -0.06203968185093053
-0.991269184154751 -0.1127746939896699 -0.06831744243390592
-0.9821250505218925 -0.16988008552592 -0.08106257878377342
-0.968406471813033 -0.2278144167066326 -0.1014371573500031
-0.9491844716801271 -0.285918488540368 -0.1315273987886517
-0.9254586134453132 -0.3379382035125033 -0.1712428842510527
-0.8978618808876592 -0.3817129044031513 -0.2194067033182557
-0.8652668779290469 -0.4184919429605879 -0.2760031225113068
-0.8238229534463517 -0.4507096552675812 -0.3437681602817625
-0.7806814427018284 -0.4620708662929694 -0.4207457659255242
-0.7262450892612488 -0.4629792013163728 -0.508151876383797
0 0 0
0 0 0
0 0 0
0 0 0
0 0 0
0 0 0
0 0 0
0 0 0
0 0 0
0 0 0
0 0 0
0 0 0
0 0 0
0 0 0
0 0 0
0 0 0
-0.6565940219982084 0.4978775372119293 -0.5665706030284307
-0.7079758198434889 0.5331980695830409 -0.4631091200892697
-0.7879148461766273 0.4979989537943449 -0.3621977873955042
-0.8373852174931847 0.4709163736885578 -0.2775315594953299
-0.8739630771146315 0.4405010172992379 -0.2052983039351775
-0.9046347987245064 0.4013382639395929 -0.1433997169963199
-0.9298526053224726 0.3562639168482023 -0.09192471880286798
-0.950870284854211 0.3056393140245998 -0.04929818560396652
-0.9682454382888951 0.2495612190989469 -0.01483135713924859
-0.9818415635243859 0.1893600235729644 0.01139849149822171
-0.991378230772694 0.1276399731119551 0.0296182513660334
-0.9970032449342643 0.06562832559291791 0.04095671459500511
-0.9989188369313069 0.003625774217949187 0.04634663941565628
-0.9972292807108167 -0.05828508700768775 0.04622348240334738
-0.9919407813124269 -0.120023230520547 0.04059446396619885
-0.9829595352955462 -0.1815140501458254 0.02903793331526656
-0.9700977362819635 -0.2424818505100589 0.01062705198193009
-0.9532518045618201 -0.3017642665075877 -0.01579001452723259
-0.932787633532648 -0.3568711601425563 -0.05049956224629659
-0.9088283868586038 -0.4065864365476276 -0.09337254872546584
-0.8806899212160647 -0.4509582483982556 -0.1449893819216365
-0.8469314792693485 -0.4898030923345548 -0.2068816090476378
-0.8069979394969337 -0.5204208348244598 -0.2791352366296937
-0.7535258465649093 -0.5479707697550785 -0.3632173372137715
-0.6684484514295668 -0.5834582238207368 -0.4612517412838291
-0.6130485600295065 -0.5500893185501904 -0.5670742496911096
0 0 0
0 0 0
0 0 0
0 0 0
0 0 0
0 0 0
0 0 0
0 0 0
0 0 0
0 0 0
0 0 0
0 0 0
0 0 0
-0.6354310245742982 0.5442376123153337 -0.547752530208452
-0.6985593242998056 0.5676719901682066 -0.4356183903513096
-0.7499042220593547 0.5727180581232049 -0.3311158160480089
-0.8016409548576906 0.5495183600372524 -0.2353749168386851
-0.8422249663416755 0.5163705805270979 -0.1549791264553736
-0.8745515956164224 0.4768767063372078 -0.08802336938418921
-0.9016497015944535 0.4312696653545905 -0.03216040048836184
-0.9246599415269074 0.3805378183143974 0.01396285672682687
-0.9442339352924247 0.3251875430862125 0.05172366251275205
-0.9605926118594751 0.2655976824278854 0.08197380758466391
-0.9736016104767065 0.2026247900952122 0.1050861480692578
-0.9830097451156965 0.1376191058695962 0.1214611983607342
-0.9886853479855365 0.07162478282297931 0.1317997464499784
-0.9905924760178827 0.005255872941513351 0.1367440026340546
-0.9887344787147432 -0.06109878439357191 0.1366421206887251
-0.983134094121051 -0.1271077526403491 0.1314951413379963
-0.9738358223714676 -0.192388143867998 0.1209569889056152
-0.9609314180515831 -0.2563481303536116 0.1043860424845232
-0.9446180532381135 -0.3179986358956366 0.08107774704041766
-0.9252018153795705 -0.3760826209503466 0.05063065314080154
-0.9028057276025295 -0.4298608781037757 0.01270604910730666
-0.8771196203912973 -0.47910233692519 -0.0334980936390088
-0.8473409620966265 -0.5234809783924975 -0.08933621446197697
-0.8121319567545033 -0.5621870542425979 -0.1561646594467877
-0.7681538593410226 -0.5951098770689865 -0.2361861185472756
-0.712285843965006 -0.6188059148879561 -0.3312523451792278
-0.6566813921382262 -0.6152502008859481 -0.4361613686804472
-0.5895342106963717 -0.5929795942285443 -0.5484748082156153
0 0 0
0 0 0
0 0 0
0 0 0
0 0 0
0 0 0
0 0 0
0 0 0
0 0 0
0 0 0
0 0 0
-0.5929876197696818 0.589743193363661 -0.5482414145986402
-0.6615549081649881 0.6172173462906365 -0.4258965260726575
-0.7148697489387386 0.6251024107231437 -0.3133819046473149
-0.7588653612546569 0.6154837564439681 -0.2128452701881362
-0.798436001803595 0.5890146935828352 -0.1247463096344254
-0.8323772335315054 0.5518749504281424 -0.05081515707318528
-0.8614992542331911 0.5076536575253598 0.01033435807293129
-0.8869503191921861 0.4578433705197762 0.06081594655984224
-0.9093390553217308 0.4032761652893675 0.1023270100026598
-0.9288837017724242 0.3444173383358105 0.1362048664153868
-0.9455121854841436 0.2816572339119343 0.163327614585151
-0.9589471531262093 0.2156162978603449 0.1842008946996099
-0.9688368480143635 0.1471877921600254 0.1992257909223838
-0.9748880863916486 0.0772696276017759 0.2088602969975664
-0.9769169309466359 0.006620969091582119 0.2135169145479895
-0.9748519616223802 -0.06411494188320824 0.2134313171685676
-0.9687308569781616 -0.1343349293549648 0.2086016622502145
-0.9587024837789601 -0.203400977058001 0.1987903169872785
-0.9450321086821104 -0.2705737782626229 0.1835868842715405
-0.9280916071151654 -0.3350025734948434 0.1625399783260133
-0.9082889320106867 -0.3958732171320791 0.1352612728920699
-0.8859082184949438 -0.4526713127272493 0.1012685096014701
-0.8609691902499623 -0.5051404248216547 0.05970933470841765
-0.8331424714558949 -0.5529808908456587 0.009260486807086606
-0.8016453824758971 -0.5955538534098628 -0.05177150223564594
-0.7650827805127608 -0.6315862781497734 -0.1254874982449607
-0.7223997775321943 -0.6577444669019681 -0.2133325518557379
-0.6747202715000562 -0.6680352472652847 -0.3138175642600325
-0.6170351674971227 -0.6615547138656734 -0.4261607239456776
-0.5440320033145118 -0.635387456421966 -0.5480072623526286
0 0 0
0 0 0
0 0 0
0 0 0
0 0 0
0 0 0
0 0 0
0 0 0
0 0 0
-0.5500650735104797 0.6132616246939947 -0.5668673518395568
-0.6152193605083058 0.6568684444412358 -0.4359231413369811
-0.6679962196768287 0.6748810218094078 -0.3135548706350372
-0.711416019125488 0.6722436491959013 -0.2048797790105708
-0.7485209477016377 0.6537959543476282 -0.110757577305191
-0.7818154640124334 0.622767477269217 -0.03041791391200288
-0.8119493251962729 0.5825658722930835 0.03681436883494416
-0.8393829102557808 0.535606108082713 0.09253338292218675
-0.8644709455852034 0.4831933018609453 0.1386153572867765
-0.8873098075468469 0.425997423246706 0.1766564485614487
-0.9077523211750684 0.3643916169396586 0.2078568567677659
-0.9254612737927518 0.2987128713426819 0.233006547556301
-0.9399744870367877 0.2294644275845592 0.2525748209802749
-0.9507944352924854 0.1573754174044951 0.2668762256432821
-0.9574865234510511 0.08330736328544221 0.2761873288766999
-0.9597490527444197 0.008153597682520664 0.2807405823906122
-0.957449115040342 -0.06720099090443539 0.2806692340281123
-0.9506369486352967 -0.141878992869012 0.2759705478340873
-0.9395465894470232 -0.2150011081688462 0.266508404641644
-0.9245801598243791 -0.285692913030149 0.2520537393165839
-0.9062637596989387 -0.3531347363929907 0.2323399574093891
-0.8851623972882876 -0.4166661675618822 0.2070672239543101
-0.8617660893498768 -0.4758774365834291 0.175783595928073
-0.836391941231257 -0.5305498787914467 0.1377147296326355
-0.8091138030529854 -0.5804581282244144 0.09166905196053474
-0.7796995949896069 -0.6251151056366517 0.03605060717824097
-0.7475859075424071 -0.6634400576858334 -0.03102580702920281
-0.7120407290776793 -0.6932785410962991 -0.1111884193156538
-0.6721081154535654 -0.7114627770060508 -0.2051618826105238
-0.6249480609211103 -0.7148780988418307 -0.3136705675501498
-0.5674964024061848 -0.6985232715511432 -0.4359048891186294
-0.4976800034524407 -0.6565091105075715 -0.5668424842794823
0 0 0
0 0 0
0 0 0
0 0 0
0 0 0
0 0 0
0 0 0
0 0 0
-0.5833988492420589 0.6686430460573354 -0.4610447480041485
-0.6187402460142597 0.7124518090399188 -0.331018017270903
-0.657671441136698 0.7225412346557765 -0.2130784825722308
-0.6931991525314561 0.7121601701761734 -0.110918109181116
-0.725373075358565 0.6879346184082643 -0.02408033098470573
-0.7553125162154961 0.6535195071309027 0.04914526068297317
-0.7836475034675421 0.611300783376256 0.1104895585685081
-0.8106190860263849 0.5627927000488219 0.1617438534891038
-0.8362078055749683 0.5088224276992528 0.2045879834343505
-0.8601743278199546 0.4497933744293605 0.2403872835216901
-0.8820937016662793 0.3859306216651872 0.2701263717999451
-0.901396946043851 0.3174864749708103 0.2944246658713012
-0.917426067783813 0.2448957738211354 0.3136167567514163
-0.92951141157015 0.1688444061450731 0.3278720821820367
-0.9370641719888291 0.09024280006857407 0.337293602979174
-0.9396614305270073 0.01015592833226176 0.3419550454367467
-0.9371068448993687 -0.07026605741148942 0.3418968300797698
-0.9294614402907607 -0.149847253919516 0.3371160505010169
-0.917042906195253 -0.2274437982190057 0.3275692703058023
-0.9003913385647011 -0.3020094563414919 0.3131864073007984
-0.8802004651304628 -0.3726724134612369 0.2938748261234587
-0.8572211160018329 -0.4388085372660989 0.269479175267697
-0.8321580178258198 -0.500066880896454 0.2396792606770426
-0.8055851149941735 -0.5563009542986853 0.2038672870918615
-0.7778835133685909 -0.6074169565738591 0.1610648332066539
-0.7491888490375994 -0.6531744225745526 0.1099056057356317
-0.7193419877550619 -0.6929469145824666 0.04869987908850728
-0.6878358593787098 -0.7254571976378774 -0.02436565098963234
-0.6536843853654913 -0.7485741500901674 -0.1110561396147129
-0.6153566555217445 -0.7588818947985019 -0.2131535977930652
-0.572573279815751 -0.7498771473395476 -0.3314273723441312
-0.5330372162039836 -0.7078978113804378 -0.4634134382862596
0 0 0
0 0 0
0 0 0
0 0 0
0 0 0
0 0 0
0 0 0
-0.4629021669021461 0.7264253867608769 -0.5079643110953835
-0.5478836204229749 0.7536893634283955 -0.3630094791146821
-0.5950147218101176 0.7682969909014855 -0.2359601970692309
-0.6314843258174838 0.7652064746920779 -0.125246146991274
-0.6633328584230718 0.7476915954760959 -0.03077006647191976
-0.6928361941430996 0.7194302667803925 0.04897039233657228
-0.7211973580371854 0.6829245383435464 0.1161397679024594
-0.7489693351693639 0.6396701045768654 0.1728209833515077
-0.7762580962990397 0.5904710526423178 0.2208332038477524
-0.8028596425126645 0.5356740213456852 0.2616672262240318
-0.8283375938741517 0.4753738569271084 0.2964397522685264
-0.8520696404461306 0.4096009296005743 0.325890175212979
-0.8732885868082775 0.3384884079401653 0.3504178103928697
-0.8911371374460932 0.262408181577552 0.3701574644736269
-0.9047487265922406 0.1820505835311154 0.3850809353443749
-0.9133518218481468 0.09843216884580229 0.3950943655166218
-0.9163791039350088 0.0128421449938851 0.4001055075642244
-0.9135572398800748 -0.0732516828197976 0.4000591961532277
-0.9049569715352473 -0.1583207908186856 0.3949524108855377
-0.8909914224358901 -0.2409039796153178 0.3848370535059884
-0.8723611477369029 -0.3197304472479943 0.3698086924637527
-0.8499564581791484 -0.3938200919836637 0.3499710764470907
-0.8247386186860509 -0.4625400488521602 0.3253658157453936
-0.7976269480351423 -0.5255962297071014 0.2958713488762027
-0.7694113700654888 -0.5829525450830113 0.2610985901823035
-0.7406906957243773 -0.6346962296167478 0.2203133890112489
-0.7118211115920663 -0.6808741815271762 0.1723979524864848
-0.6828543169706541 -0.7213099228779032 0.1158532561148558
-0.6534413005669317 -0.7553996622670269 0.04884482531709591
-0.6226791145091369 -0.7818735735452741 -0.03073166682201485
-0.5889133160581658 -0.7984599205275169 -0.1250714255158451
-0.5494005532144389 -0.8016241371908585 -0.235706968078332
-0.4978604705143774 -0.7878503029269658 -0.3625284155443407
-0.4075758521651812 -0.7608840982974127 -0.5049131744072032
0 0 0
0 0 0
0 0 0
0 0 0
0 0 0
-0.3874184265836533 0.7244494864279439 -0.5701577890003207
-0.4619666743594269 0.7808413965740058 -0.4205633188684513
-0.5203080512212863 0.8071394846173503 -0.2789361651094114
-0.5620666156719583 0.8122562513698988 -0.1559516003688009
-0.5954271764649935 0.801754049099565 -0.0515453419755552
-0.6249837986148713 0.7797937252053718 0.036290461546449
-0.6530401391763624 0.7492684325202282 0.1101607582272229
-0.6807385015346573 0.7118848145201314 0.1726705052520168
-0.7085510133994634 0.6684691235450959 0.2260630272234812
-0.7365082269006994 0.6192790366690177 0.2721196546555951
-0.7643211845739825 0.5642400060944067 0.3121639670653993
-0.7914477244266995 0.5031308221522814 0.3470877054869096
-0.8171310146641181 0.4357478508948468 0.3773866920209437
-0.8404353888481666 0.3620607522868867 0.4032125603513412
-0.8603020831993887 0.2823535809252046 0.4244487966545614
-0.875640849111449 0.1973283158709295 0.4408113418719198
-0.885458638022963 0.1081436876422554 0.4519601123701659
-0.8890067064265834 0.01637276977159002 0.4576013640042655
-0.8859118300615475 -0.07612085404215552 0.4575651264431019
-0.8762537152671211 -0.1673700114458377 0.4518481003049437
-0.8605627285438845 -0.2555169729326001 0.4406164622258961
-0.8397367243042625 -0.3390054965413825 0.4241668388375933
-0.8149016867330076 -0.4167109302572742 0.4028489066186173
-0.7872553840924348 -0.4879858104985956 0.3769599567188816
-0.7579306487100622 -0.5526202417361076 0.3466294854300044
-0.7278977128422591 -0.6107358826137519 0.3117155776136464
-0.6979027734694065 -0.6626432888069375 0.2717270516213562
-0.6684239910832642 -0.7086867025008377 0.2257709588118204
-0.6396199245335573 -0.7490822673641073 0.1725169813680205
-0.6112443303354628 -0.7837360625404139 0.1101732858110318
-0.5825011949952795 -0.8120105616625934 0.0364856900369165
-0.5517993116162319 -0.832406531140124 -0.05115551402456783
-0.5162804129355508 -0.8422158782406052 -0.1553285217160794
-0.4708072520073777 -0.8373297331727459 -0.2778838775498118
-0.4070245249173726 -0.8119542097607814 -0.4184033907218384
-0.3267119139701521 -0.7567097140325941 -0.5662594228431602
0 0 0
0 0 0
0 0 0
0 0 0
-0.4140912563837869 0.7649807568599022 -0.4932878196555713
-0.4505817715753726 0.8239645718261246 -0.343596349659581
-0.4896678526672279 0.8470550581034064 -0.2066957246913931
-0.5233387222302234 0.8474496479319168 -0.08913852160826204
-0.5528327127808035 0.8332384453802928 0.009470206948631313
-0.580305394442271 0.8091980103251223 0.0918924875442088
-0.607261126490653 0.7779555197879999 0.1613044744719917
-0.6345387522167966 0.7407486444585719 0.2205720237653419
-0.6624854847383951 0.6979434023832649 0.2720073336890103
-0.6910813713457823 0.6493861476672981 0.3173392024264546
-0.7200072530583767 0.5946421233553203 0.3577573209241238
-0.7486758725296392 0.5331745632809929 0.3939661444364291
-0.776246103437933 0.4645064506893047 0.426234377033868
-0.8016427919424713 0.3883870237205427 0.454449506471486
-0.8236070806156363 0.3049618430059613 0.4781941562484797
-0.8407988576230804 0.21492123054054 0.4968562625978085
-0.8519583653748255 0.1195842560532705 0.5097710754564644
-0.8561074880909303 0.02087300756071176 0.5163761094299458
-0.8527417089478091 -0.07884844589325216 0.5163472672543045
-0.8419487245487961 -0.1770531342040206 0.5096808147254396
-0.8244061240331715 -0.2713802633379161 0.4966963814316003
-0.8012567227375543 -0.3599205114938491 0.4779590878661889
-0.7739077562940605 -0.4413847965015428 0.4541434202597062
-0.7438194558890286 -0.5151341166491289 0.4258749334077673
-0.7123348155125231 -0.5810944415344835 0.3935839943728218
-0.6805714568834564 -0.639603938001436 0.3573923538194185
-0.6493674313560198 -0.6912384799539234 0.3170351761635821
-0.619256428918598 -0.7366428978598423 0.2718063948394859
-0.5904441361082673 -0.7763703048786973 0.2205104801090408
-0.5627604433506711 -0.8107078149465128 0.1614110348904497
-0.5355668321051058 -0.8394457786965891 0.09218976612063783
-0.5076049826897008 -0.8615321157802829 0.009979730844911834
-0.476815552489307 -0.8745481871025662 -0.08838776691336368
-0.4404238633895442 -0.8739149790342684 -0.2056682522329631
-0.3968207589913204 -0.8516498465960591 -0.342382569688442
-0.3549413733258575 -0.7943248512507074 -0.4930158741735353
0 0 0
0 0 0
0 0 0
-0.2974647353476142 0.7568589920068468 -0.5819615085578711
-0.3763087840804201 0.8240098379677159 -0.4235557648720339
-0.4183444572876385 0.8653891010068273 -0.2758434681396421
-0.4508038305399265 0.8807970681587821 -0.1448186144576123
-0.4789411714404769 0.8772145318959643 -0.03331695258823922
-0.5049732233198737 0.8610538808330473 0.05990207035056797
-0.5303776553252705 0.8364670897941848 0.1379215371974768
-0.5561249031367056 0.8056499444962569 0.2040913007562233
-0.5827739445763312 0.769463637892294 0.2613431450880221
-0.6105559768502138 0.7279337203687037 0.3119838102893456
-0.6394237563076196 0.6805860853849772 0.357686790711938
-0.6690662053783737 0.6266705482021907 0.3995427847384425
-0.6988986387495031 0.5653317294254704 0.4381104067000668
-0.7280433121490332 0.4957753471786092 0.4734551095563279
-0.7553216783602121 0.4174594462224461 0.5051898385347434
-0.77928769051796 0.3303149574317155 0.5325436360563025
-0.7983339496048512 0.2349670505441874 0.5544847969664125
-0.8108894629982299 0.1328933043472857 0.5699102108736965
-0.8156920483014972 0.02643365615395439 0.5778821196057563
-0.8120671527085407 -0.08141373849660548 0.5778570261542636
-0.8001086449653656 -0.1874008243189487 0.5698307532033211
-0.7806773163131874 -0.2885274592058824 0.5543418016695447
-0.7552148164484573 -0.3824585659635765 0.5323307490064862
-0.7254549010887477 -0.4677392642376742 0.5049110487766276
-0.6931385782029449 -0.5437908407235816 0.473128347229311
-0.6598058455697382 -0.610751021031296 0.4377664176946783
-0.6266837245352426 -0.6692461033063476 0.3992206941178087
-0.5946510735137066 -0.7201631825158391 0.3574284422337621
-0.5642449320222858 -0.7644543906465342 0.3118287050744391
-0.535674581795473 -0.8029706443386584 0.2613252508821222
-0.5088177676704335 -0.8362960895304021 0.2042384144548566
-0.4831820428487028 -0.8645346156379443 0.1382570498466725
-0.4578235819034828 -0.886985687177032 0.06044798256478467
-0.4312388710507791 -0.9016508875986748 -0.03253787004969051
-0.401293609001723 -0.9045935932702895 -0.1437841103485273
-0.3651603427549496 -0.8895473331476175 -0.2745240721121713
-0.3174968170635526 -0.8493316016368921 -0.4217008437452118
-0.2323388063549227 -0.7829910396408281 -0.5770127476093959
0 0 0
0 0 0
-0.3257735942678778 0.7870842102313313 -0.5238034090021834
-0.3539656951901734 0.8611563296194942 -0.3648534809821848
-0.3815489689204733 0.897967004246861 -0.2192615871502365
-0.4064157699274941 0.9089205838307157 -0.09321799312939782
-0.4296832960055315 0.902887935753831 0.01287014390006539
-0.4524871085257383 0.8859822336160543 0.1014440650542135
-0.475687240278819 0.8618323088672946 0.1759736367425206
-0.4998715753825413 0.8322153868235403 0.2398873862017768
-0.5253968725548477 0.7976729460040224 0.2961013298228302
-0.5524179501447127 0.7579612635578933 0.3468848963325363
-0.5808902174559938 0.7123445186435285 0.3938677976459197
-0.6105454879531278 0.6597876334830091 0.4380804559016153
-0.6408467686422493 0.5991101008814899 0.4799817768859124
-0.6709328977516825 0.5291536664141807 0.5194664994347177
-0.6995739787397354 0.4490028713487797 0.5558710909831582
-0.7251731227637752 0.3582730221584275 0.5880173327500651
-0.7458616699287373 0.2574371349617446 0.6143423238503132
-0.7597278614896704 0.1481025832255627 0.6331502201833674
-0.7651740398006064 0.03309404364496545 0.6429723735048378
-0.7613136901900891 -0.08379324039055222 0.6429464658849909
-0.7482435343434677 -0.1983844248995957 0.6330681110832008
-0.7270443598669133 -0.30687356880261 0.6141946853857166
-0.6995064164810444 -0.4064280232663349 0.5877984647867557
-0.6677209419788386 -0.4954516105970675 0.5555865775913451
-0.6337061968378708 -0.5735103648015459 0.5191361262274845
-0.5991645006460166 -0.641053717664202 0.4796373966180227
-0.5653801721360465 -0.6990784930958344 0.4377608039172433
-0.5332177802586775 -0.7488309668044483 0.3936127309561053
-0.5031689995261031 -0.791579850575899 0.3467308726925497
-0.4754067297483965 -0.8284477292174331 0.2960790456354732
-0.449820277014323 -0.8602623737028089 0.2400215964824118
-0.4260173004268121 -0.8873742775834741 0.1762842909060765
-0.4032875613594638 -0.9093766904162165 0.1019469361010181
-0.3805388889724448 -0.9246652880347385 0.01357420654221725
-0.3562525549767119 -0.9298177374140391 -0.09232059500892113
-0.3285870504612912 -0.9189177362759944 -0.2182217776175195
-0.296064566663959 -0.8831541470954779 -0.3638468425507366
-0.2618697097271732 -0.8107301514064341 -0.5235846414171309
0 0 0
0 0 0
-0.307023943076758 0.8275507564347131 -0.469995791366192
-0.3197674529633353 0.8945133828144729 -0.3124013188050725
-0.3377608792598545 0.9255473749192152 -0.1711129604143378
-0.3566868841025005 0.9328655775589236 -0.0503615023098449
-0.3758908391797494 0.9252716940531734 0.05077764473381625
-0.3956738155393068 0.908352220953213 0.1354196233414169
-0.4164593787333732 0.8852191997259994 0.2072403298141391
-0.4385948910970725 0.8572701420775831 0.2696709569194035
-0.4623203112038509 0.8247771501844756 0.3255803777593926
-0.4877608881167643 0.7872791965324517 0.37720124964104
-0.5149048964109914 0.7438227240176085 0.4261463397555004
-0.5435579441823426 0.693113831228262 0.473432126366964
-0.5732737928863068 0.6336444399647454 0.5194726961944307
-0.6032678122719081 0.5638513065612715 0.5640386961599464
-0.6323317469233204 0.482360891961437 0.6062050245082666
-0.6587901315630098 0.3883535347203608 0.6443423737621117
-0.6805634699788928 0.2820288033069553 0.6762345136382312
-0.6954100146424237 0.1650590405798582 0.699400046223819
-0.7013700888383569 0.04080678846969536 0.7116282769098372
-0.6973114016165419 -0.08594971284824968 0.7115964137324446
-0.68332813111899 -0.2098608305451871 0.6993004340226825
-0.6607465566497126 -0.3261253282191459 0.6760593599451914
-0.6317295242406618 -0.431354937722068 0.6440890667488909
-0.5987175339510794 -0.5238729930643158 0.6058831584368167
-0.5639601438143607 -0.6035091276139194 0.5636716145732112
-0.5292532979134915 -0.6711425215451066 0.5190940785847672
-0.4958670373506901 -0.7282245252381521 0.4730802491234619
-0.4645908668707943 -0.7764018331639519 0.4258585679305962
-0.4358252080529585 -0.8172635093002515 0.3770102709367908
-0.4096710935812027 -0.8521802474764822 0.3255125510558728
-0.3859931667590774 -0.8821826564413735 0.2697462435129351
-0.364445844148364 -0.9078184857074094 0.2074724648980957
-0.3444622722604445 -0.9289242155634275 0.1358143760028428
-0.3252219403690681 -0.9442437984856435 0.05132580758235424
-0.3056617600540311 -0.9508419952125189 -0.04970300374169991
-0.284744326202466 -0.9433240107836917 -0.1704713447312255
-0.262628963623545 -0.9130134363787074 -0.3121417826212409
-0.2444842339797836 -0.8474501302985241 -0.4712279023915418
0 0 0
0 0 0
-0.2578028116509003 0.8682678088115504 -0.4238498820177717
-0.2703078205881473 0.9247355751050157 -0.2679511117052536
-0.2857304913208189 0.9492570069207817 -0.1314124086278063
-0.3015687514802332 0.9533156848977288 -0.01566821810630645
-0.3177947260916251 0.9446754985073705 0.08120784807023891
-0.3347897583146998 0.9281436559252129 0.1626811964959821
-0.3529128354621486 0.9063101989574329 0.2324959221831735
-0.3724415519335291 0.880239793204628 0.294049650318475
-0.3935806622330979 0.8499858092933357 0.3501690824674684
-0.4164635155943834 0.814916699428351 0.4030743271055214
-0.441130043361075 0.7739024072063643 0.4543999878570092
-0.4674776682422985 0.725421372056387 0.5052014080132513
-0.4951831974843356 0.6676496425250831 0.5559114639628485
-0.5235968798236751 0.5985974749903994 0.6062403569328171
-0.5516218714336255 0.5163645876798034 0.6550426883389591
-0.5776188487678228 0.41957715479638 0.7002224480271317
-0.599414969467443 0.3080160374020405 0.7388016073896215
-0.6145264521380186 0.1833123968728234 0.7673029419827604
-0.620668578954387 0.04938715231278312 0.7825160856398896
-0.6164614676463933 -0.08781106373760189 0.7824733068881806
-0.6019891798204742 -0.2214865916210544 0.7671718954127298
-0.5788136812976225 -0.3456534549922156 0.7385786426607787
-0.5494302868689824 -0.4563448004979253 0.6999112678972784
-0.5165448143656325 -0.5519079790795864 0.6546594820059207
-0.4825269938359587 -0.6325804216324 0.6058132636275035
-0.4491566410031926 -0.69978909161223 0.5554759572684115
-0.4176020516742631 -0.755507132217062 0.5047945122587965
-0.3885191598014728 -0.8018019819780214 0.454055551847209
-0.3621827721204565 -0.8405709165378272 0.4028202748744134
-0.3386004130801246 -0.8734020856805358 0.3500265089830455
-0.3175883638418855 -0.9014889223515328 0.2940329131741988
-0.2988043549130587 -0.9255308896999556 0.2326124022837111
-0.2817378297723497 -0.9455569510829203 0.1629289646868773
-0.2656667079433983 -0.9606079895591942 0.08156893210995902
-0.249617827326031 -0.9682244555743962 -0.01524283138707636
-0.2324658331982883 -0.9637370558991319 -0.1310363441274922
-0.2136397062354827 -0.9394631321852871 -0.2678938207279625
-0.196195443643663 -0.8837457047735899 -0.4248539480665047
0 0 0
-0.08979518823225444 0.8272366564236325 -0.5546317142387209
-0.1763954288684257 0.9047804043368278 -0.3876300718499662
-0.2090486062840056 0.9494284971807019 -0.2342737905782634
-0.2276180208207328 0.9684631756732329 -0.1013366368228608
-0.242277263478383 0.9701476843436334 0.01073304076723801
-0.2561341412695211 0.9609761337326417 0.1044996271399489
-0.2703494677632067 0.9450721594680275 0.1837111283471676
-0.285457661229039 0.9246150180665975 0.2521923710411403
-0.3017629361125526 0.9004193031363765 0.3133435956392482