# OOMMF: rectangular mesh v1.0
# Segment count: 1
# Begin: Segment
# Begin: Header
# Title: 
# Desc: time = 1.9999999999999998e-10
# Desc: stepsize = 1.0498427208362679e-13
# Desc: step = 1278
# meshunit: m
# valueunit: (none)
# valuemultiplier: 384000.0000000001
# xmin: 0
# ymin: 0
# zmin: 0
# xmax: 9.357999999999999e-08
# ymax: 9.357999999999999e-08
# zmax: 2.3395e-08
# ValueRangeMaxMag: 1
# ValueRangeMinMag: 0
# meshtype: rectangular
# xbase: 1.16975e-09
# ybase: 1.16975e-09
# zbase: 1.16975e-09
# xstepsize: 2.3395e-09
# ystepsize: 2.3395e-09
# zstepsize: 2.3395e-09
# xnodes: 40
# ynodes: 40
# znodes: 10
# End: Header
# Begin: Data Text
0 0 0
0 0 0
0 0 0
0 0 0
0 0 0
0 0 0
0 0 0
0 0 0
0 0 0
0 0 0
0 0 0
0 0 0
0 0 0
0 0 0
0 0 0
0 0 0
-0.8167284216767893 -0.001306926401451057 -0.5770207770684875
-0.8257303045055915 0.02161621004529434 -0.5636507816763678
-0.8353186566464942 0.006318358783134221 -0.549729770160379
-0.8399095924470483 -0.02482722727072595 -0.5421581736924015
-0.8377660026730308 -0.06046336365701204 -0.5426714534785578
-0.8290141884869682 -0.09180397688241351 -0.5516407391734829
-0.8157266067621308 -0.1073578902155011 -0.5683875319083058
-0.8041883207655736 -0.08399335404319271 -0.588409943169574
0 0 0
0 0 0
0 0 0
0 0 0
0 0 0
0 0 0
0 0 0
0 0 0
0 0 0
0 0 0
0 0 0
0 0 0
0 0 0
0 0 0
0 0 0
0 0 0
0 0 0
0 0 0
0 0 0
0 0 0
0 0 0
0 0 0
0 0 0
0 0 0
0 0 0
0 0 0
0 0 0
0 0 0
-0.7719960085512161 0.2008816964429321 -0.6030495061064223
-0.7993058093426786 0.234079858250139 -0.5534589805149426
-0.8355965408737612 0.2197797135396369 -0.5034633039221819
-0.8714413809622518 0.1740389571684661 -0.4585851730423865
-0.9023881483521032 0.09408244001438726 -0.420528386906997
-0.9146514871296135 0.0564643277560475 -0.4002804476646886
-0.9220432705381284 0.02083576759512594 -0.3865256499174057
-0.9250046869705074 -0.01860863144571073 -0.3794997337526215
-0.9230211610927799 -0.05978716786254562 -0.3800755592430424
-0.9161457636445314 -0.09928747330916486 -0.3883541391565944
-0.9049402170592543 -0.1349677742159709 -0.4035677185701744
-0.888657908260901 -0.1724067380196399 -0.424927098183661
-0.851697602540326 -0.2512736136736317 -0.4598616801805244
-0.8105676244958961 -0.2974512553244751 -0.5044827814950408
-0.7698510222491363 -0.3126018394409921 -0.5564256406026485
-0.739597043576581 -0.2799461026814228 -0.6120673106172739
0 0 0
0 0 0
0 0 0
0 0 0
0 0 0
0 0 0
0 0 0
0 0 0
0 0 0
0 0 0
0 0 0
0 0 0
0 0 0
0 0 0
0 0 0
0 0 0
0 0 0
0 0 0
0 0 0
0 0 0
0 0 0
0 0 0
-0.752730269720857 0.2924607418840562 -0.5897998435932252
-0.7900031642100465 0.3237611802539426 -0.5206473842234186
-0.8444421991104475 0.2883046464132474 -0.4514397005337958
-0.8778814925866283 0.2695048651705736 -0.395842408823592
-0.9073783123219007 0.2387032267239061 -0.3459557310978587
-0.9333865439221554 0.1921760587940132 -0.3030807187061783
-0.9535906072989437 0.1333187037483628 -0.2699834752389247
-0.9649087239865298 0.08257368704424083 -0.2492643989473948
-0.971022080321186 0.03498328794626057 -0.2364155009579206
-0.9730489590462822 -0.01260213553727199 -0.2302540107768943
-0.9711266208239345 -0.06046119709649567 -0.230775930228315
-0.9652567452115079 -0.1079309674567683 -0.2379712631548845
-0.9552509044657348 -0.1552830023244292 -0.251759604993546
-0.9397687976704376 -0.2056416049784592 -0.2730313850584628
-0.9147601277571299 -0.2639917272511265 -0.3058141210093566
-0.884163179424994 -0.3104527641984837 -0.3491053613890882
-0.8504816047216618 -0.3414403480629272 -0.4001243915893328
-0.8131228460019045 -0.3604528223860071 -0.457061265197264
-0.7539387782425352 -0.3953810953958579 -0.5246428385727989
-0.7133825306525418 -0.3648073390061597 -0.5983318229603196
0 0 0
0 0 0
0 0 0
0 0 0
0 0 0
0 0 0
0 0 0
0 0 0
0 0 0
0 0 0
0 0 0
0 0 0
0 0 0
0 0 0
0 0 0
0 0 0
0 0 0
0 0 0
0 0 0
-0.7626716740000971 0.3735454405975527 -0.5280110997760079
-0.8133934830933641 0.3750660233914769 -0.4446532578971488
-0.8528752740751576 0.3670706310772498 -0.3712989613125436
-0.8904231568743884 0.3374070261667086 -0.3054555620629386
-0.9193687889167189 0.3029851032962461 -0.250920419946978
-0.9432806393414876 0.2613917816508533 -0.2046850554605933
-0.9631049661477668 0.2114156681936838 -0.1665299955675449
-0.978228721303297 0.1553460499113697 -0.1376087700484608
-0.9879461408122303 0.09978128185095907 -0.1183474488377323
-0.9932594545769079 0.04543119174454033 -0.1066379984351426
-0.9948278853348627 -0.008410208464302241 -0.1012262167313965
-0.9928760343391843 -0.062080359673821 -0.1017015701828803
-0.9873979093959263 -0.1156434306871014 -0.1080368708333919
-0.9781358783436989 -0.1694473651180695 -0.1205727745029693
-0.9643595434590715 -0.224228780964262 -0.140471081460532
-0.9450434548584795 -0.2793776003129616 -0.1698264551609062
-0.921177842474843 -0.3285133208354829 -0.2085914201664
-0.8934296443683266 -0.3694047512804977 -0.2555848201581582
-0.860680692296202 -0.4033206737141931 -0.3107429485334444
-0.8190341464226065 -0.4327523241086119 -0.3767074368424207
-0.7757009883825143 -0.4410807282627076 -0.4513709868585142
-0.7212204867883616 -0.4389600473334527 -0.5358685345136165
0 0 0
0 0 0
0 0 0
0 0 0
0 0 0
0 0 0
0 0 0
0 0 0
0 0 0
0 0 0
0 0 0
0 0 0
0 0 0
0 0 0
0 0 0
0 0 0
-0.6637252355251726 0.4631369250997222 -0.58734402213373
-0.7150309160850579 0.5009408986124196 -0.487636140108528
-0.7947914847719183 0.4666183259474884 -0.3880384434872562
-0.8440777606162395 0.4408482725324768 -0.305263058096136
-0.8803997907195067 0.411956239240066 -0.2349218283860179
-0.9106559213500356 0.3743947278285371 -0.1747408958553001
-0.9353048120252619 0.3310865602387587 -0.1248462984299313
-0.9556340245416038 0.2824241310085026 -0.08366732553696769
-0.9722271902364898 0.2285221424038243 -0.05051654180588377
-0.9849835357001427 0.1707587816389252 -0.02547298358721717
-0.9936963131525788 0.1117984898096475 -0.008290651557839241
-0.9985999406428998 0.05285163529822522 0.002205265131395918
-0.9999584023808847 -0.005855728736829198 0.006993135836559277
-0.9979065273885001 -0.06434130042718697 0.006539086691761412
-0.9924518292015821 -0.1226320558596594 0.0008634755737190046
-0.9834718003298796 -0.1807590540694805 -0.01045860066221109
-0.9707192524674111 -0.2385353066855984 -0.02837323304661335
-0.9540153904282244 -0.2948414003692285 -0.05406647255364524
-0.9336818900609661 -0.3471572184601004 -0.0878634955099527
-0.9098203713328362 -0.3942313478426339 -0.1296477392242518
-0.8817176109776081 -0.4360958513801824 -0.179984618512062
-0.8478919386960784 -0.4725469199671719 -0.2403719383034221
-0.8078023541047775 -0.5008177302841111 -0.3108648544558396
-0.7541220279629093 -0.5261981770370788 -0.3929573073807935
-0.6687889367394466 -0.5599910458113935 -0.4890106202384381
-0.6133107002328627 -0.5235154522358426 -0.5914233308301051
0 0 0
0 0 0
0 0 0
0 0 0
0 0 0
0 0 0
0 0 0
0 0 0
0 0 0
0 0 0
0 0 0
0 0 0
0 0 0
-0.6471684964964253 0.5101568015319585 -0.5664918137036382
-0.7101766187310973 0.5351986375253091 -0.4573965332167678
-0.7616440198329448 0.5418525215709298 -0.3553789975785533
-0.8133925602487941 0.5197129379242421 -0.2613254772999829
-0.8538235494451168 0.4875078172869658 -0.1825417061852979
-0.8858021115432437 0.449018101977503 -0.1172064984633997
-0.9123414858313735 0.4045610991721082 -0.06295498604285853
-0.9346015151148342 0.3552191614557143 -0.01842159818676839
-0.953279060483827 0.3015665202214407 0.01779513204791411
-0.968648850951999 0.2440285611639507 0.04657751480728919
-0.9806417466196797 0.1834989044332028 0.06833678993424877
-0.9890901319754533 0.1213424972045988 0.08352669753397295
-0.9939506611684437 0.05856414641241506 0.09291030038589992
-0.9952570418225904 -0.004313102921161424 0.09718445269556823
-0.9930511156086016 -0.06702383883779163 0.0967330699190135
-0.987358930000488 -0.129372675439079 0.0915699415639514
-0.9781932859331488 -0.1911073489920312 0.08133803855851506
-0.9655845022060084 -0.251742512830344 0.0653626524357627
-0.9496536158642255 -0.3103521773759099 0.04288981084165691
-0.9306386710993493 -0.3656915650198818 0.01346637025133904
-0.9086056193847656 -0.4170056289231492 -0.02328376835553755
-0.8831896685320793 -0.4640335073325136 -0.06818294120145579
-0.8535389692384785 -0.5064013089259702 -0.1225925866819812
-0.8182950447048327 -0.5432311527903206 -0.1878646705732997
-0.7741182734640123 -0.574358856001804 -0.2661818987485716
-0.717920285383152 -0.5962179978276837 -0.3593251492753067
-0.6620197463280477 -0.5903659390587593 -0.4617335957790117
-0.5948709865688595 -0.5657226544230682 -0.5710397425846196
0 0 0
0 0 0
0 0 0
0 0 0
0 0 0
0 0 0
0 0 0
0 0 0
0 0 0
0 0 0
0 0 0
-0.6089030931961651 0.5567931406270441 -0.5649941784185163
-0.6773767190407159 0.5855211937606549 -0.4453377506553108
-0.7308708864612057 0.594584125450234 -0.3351081393908409
-0.7750773184308684 0.5859512653465123 -0.2364662028553649
-0.8147072686486858 0.5601477386061663 -0.1499552511431172
-0.8484783747242488 0.5235144878439435 -0.07756950846041324
-0.8771738933870259 0.4798340573569386 -0.01803436055489557
-0.9019437370736409 0.4307575644874576 0.03074761438661514
-0.9234250422030159 0.37724810860129 0.07049862402279276
-0.9418895775836307 0.319869574991155 0.1026035020567383
-0.9573368642618814 0.2590788721599431 0.128001040329988
-0.9695769961770112 0.1955310662515078 0.1472686341856667
-0.9783586457754808 0.1301120116330236 0.1608888581138372
-0.9834891518879647 0.06365625332648267 0.1694017990787752
-0.9848659585561338 -0.003194396732125033 0.1732883132436368
-0.9824649072356569 -0.06995210856892008 0.1728276845797382
-0.9763294082924711 -0.1361850690659974 0.1680312871662955
-0.966572561801346 -0.201419359246991 0.1586433878020584
-0.953390033963782 -0.2650503486241773 0.1442073362653237
-0.9370651365511098 -0.3263155204221381 0.1242059217270996
-0.9179156477067816 -0.3844369263006872 0.09817898650688468
-0.8961427389496466 -0.4388935252850776 0.06557945479082249
-0.8716927763346598 -0.489388721085057 0.02550261478170661
-0.8441775278010363 -0.5355521975840305 -0.02341250133252503
-0.8127798594211133 -0.5766457805016901 -0.08287667916242143
-0.7760971675808618 -0.6112740655057178 -0.1549748473561909
-0.733110964739068 -0.6359479614376969 -0.2410777959966237
-0.6850618761513438 -0.6445190640521724 -0.3395370405674646
-0.6271094839886689 -0.6361613860472295 -0.449480128586273
-0.5541525835803799 -0.6080284932299547 -0.568521121447304
0 0 0
0 0 0
0 0 0
0 0 0
0 0 0
0 0 0
0 0 0
0 0 0
0 0 0
-0.5697400940328315 0.5814201188290189 -0.580815694237259
-0.6347637516737246 0.6261885514661081 -0.4527282601891278
-0.6877912741996872 0.6452075700264853 -0.3326414807496023
-0.7315690504045391 0.643282390097929 -0.2258195985296584
-0.7689648742648633 0.6252371443031578 -0.1333099228506815
-0.8023617442344116 0.5943441335077985 -0.05450396640590753
-0.8323374036986059 0.5541577411571103 0.01111954674940901
-0.8593190593777011 0.5072828097532275 0.06507614861908423
-0.8836593181876871 0.4552080459496994 0.1092329816618013
-0.905482301565071 0.3987630015272996 0.1452235179485749
-0.9246985751872412 0.3384473396332191 0.1743156428490619
-0.9410558761222834 0.2746851569297509 0.1973876961165487
-0.9541999000821145 0.2080197981494742 0.2150123583916377
-0.9637556442930932 0.1391620944162036 0.2276158376978625
-0.969409864106283 0.06888781832706099 0.2355822231399794
-0.9709602852084267 -0.002059651886905688 0.2392318590448914
-0.9683331503117819 -0.07299221572923165 0.2387531077288763
-0.9615869815842193 -0.1432495547229645 0.2341581557824156
-0.9509128147618174 -0.212159797033564 0.2252843519741964
-0.9366281269403898 -0.2790190320658193 0.2118398724725578
-0.9191499558886892 -0.3431219147157248 0.1934701791792082
-0.8989288172435481 -0.4038596894479691 0.1697773034539804
-0.8763490422257676 -0.4608168948925109 0.1402146410743316
-0.8516393205452115 -0.5137216742543916 0.1039254978460762
-0.8248087158807705 -0.5622561400862309 0.05965412929920701
-0.7955894448796814 -0.605808704667013 0.005766155193523711
-0.7634148595943009 -0.6431505264282161 -0.05962509962860786
-0.7275898811534169 -0.67196873990489 -0.1380977097340498
-0.6872453948969232 -0.6889630604457934 -0.2302686876979531
-0.6396680317748488 -0.6909677487165304 -0.3367319102177575
-0.5819681005067653 -0.6729707991071852 -0.4565341537514838
-0.5123260178857451 -0.6291345294877623 -0.5845611988522214
0 0 0
0 0 0
0 0 0
0 0 0
0 0 0
0 0 0
0 0 0
0 0 0
-0.6060392263286993 0.6387461892185593 -0.47404616010435
-0.6417515450368958 0.6838448562450423 -0.3471471835258838
-0.6812258822297385 0.6946044380398341 -0.2312054757908646
-0.7172988214742947 0.6844088337810639 -0.1306405333502239
-0.7498982375724127 0.660000203327534 -0.04530303404191116
-0.7800503349622578 0.6251619406606309 0.02634431389697233
-0.8083153818744575 0.5824464251336064 0.08592092454246096
-0.8348903532101138 0.5335618198046704 0.1351661294978108
-0.8597412916220317 0.4795332819673215 0.1757633151875815
-0.8826485158732094 0.4209482291030366 0.209127200148229
-0.9032444984987457 0.3581873132611885 0.2363286367550062
-0.9210554888701167 0.2916158543141196 0.2581026538702685
-0.9355517601167161 0.221723153437661 0.2749213476108633
-0.9462130849785055 0.1491745340975957 0.2871023444561606
-0.9526008206328465 0.07477416816899725 0.2948906582180269
-0.9544169843776755 -0.000601237855066776 0.2984758925683362
-0.9515407198446282 -0.0760510214064488 0.2979706371785683
-0.9440441756358608 -0.1506754656206076 0.2933896700772207
-0.9321906881135601 -0.2235937179188741 0.2846513135426952
-0.9164134440257877 -0.2939733393497599 0.2715991078047651
-0.8972690969087621 -0.3610834737235027 0.2540214414893007
-0.8753659371022302 -0.4243605201997354 0.2316303629858218
-0.8512805911934321 -0.4834405535955741 0.2039769256474
-0.8254862029775966 -0.538104587011013 0.1703407823491979
-0.7982971086479757 -0.5881421445444274 0.1296554824716788
-0.7698188994242721 -0.6331657827922169 0.08049815892503999
-0.7398986061959479 -0.6723854863106851 0.02116152990774593
-0.7080707250507835 -0.7043592791140129 -0.05013835111015431
-0.6734237359393329 -0.7268096728749354 -0.1350857923282102
-0.6345284320251839 -0.7362024869185577 -0.2353286366054748
-0.5912395894004524 -0.725913159332828 -0.3514055108176535
-0.5514326016932343 -0.6820721517363955 -0.4803120502501617
0 0 0
0 0 0
0 0 0
0 0 0
0 0 0
0 0 0
0 0 0
-0.4885792092305031 0.6997398304410207 -0.5212048791042416
-0.5736876753725753 0.7271526592110323 -0.3770032643465229
-0.6214301668474892 0.7420238940098942 -0.2514459950969476
-0.6586697043502419 0.7388828163750883 -0.1421492322764417
-0.6912792946762325 0.7209209922010408 -0.04904956427733607
-0.7214199242973675 0.6918813132538972 0.02921542737737024
-0.7502002598170263 0.6543950341273083 0.09469271080703372
-0.7780930821770851 0.610127006316156 0.1493860489866738
-0.8051433692880401 0.560078692716757 0.1950795039367035
-0.831114376804493 0.504808331960349 0.2332754608875283
-0.855575000961768 0.4446206712796478 0.2651487816304375
-0.877954351893707 0.3797361225374726 0.2915418207240702
-0.8975866481795945 0.3104359500986323 0.3129979710734233
-0.9137624984028139 0.2371724174333686 0.3298292602566648
-0.925795678155463 0.1606226311217368 0.3422027654479081
-0.9331014279069565 0.08167922910286456 0.3502145467726319
-0.9352712994717157 0.001398385022789018 0.3539288641857506
-0.9321294415638119 -0.07906833290486548 0.3533877514877684
-0.923761076635263 -0.158545325647039 0.3486098865625203
-0.9105089338817791 -0.2359052950781872 0.3395911852147205
-0.8929364498020006 -0.3101432473843661 0.3263060874652484
-0.871761358309287 -0.3804463888882677 0.3086951236100484
-0.8477702496449843 -0.4462439333882701 0.2866216246744926
-0.821732276576821 -0.5072109576697462 0.2597943610850962
-0.794327379811601 -0.5632103927001434 0.2276797470926792
-0.7660905680895144 -0.6141824845976186 0.189433674666835
-0.7373591344860208 -0.6600026892648018 0.1438678454459345
-0.7082055494204692 -0.7003161770376167 0.08945474805435435
-0.6783341187146092 -0.7343491701576214 0.02437457028311603
-0.646920770537839 -0.7606837323990154 -0.05342074419390775
-0.6124107400151434 -0.7769343362378492 -0.1460346626275981
-0.5721863095101687 -0.7795083160680417 -0.2548913737063273
-0.5201380025085577 -0.7649581079132599 -0.3798625428812006
-0.4298341335254409 -0.7374415647493107 -0.5209822993504877
0 0 0
0 0 0
0 0 0
0 0 0
0 0 0
-0.4158314228225286 0.6995826746583749 -0.5810923412945875
-0.490345441888541 0.7564997598379041 -0.432746416489292
-0.5491672986874421 0.7829888919119553 -0.2921363948480669
-0.5917748249383675 0.7879252407808247 -0.1702244738856406
-0.6261579561421508 0.7768164189943925 -0.06695121463134276
-0.6567591930141709 0.7538452919444667 0.01961219530129987
-0.6857610317402522 0.7219927547407868 0.09196885042422734
-0.7141980040411282 0.6830987684318791 0.1526344770702796
-0.7424440547446101 0.6381591703849658 0.2037883677444671
-0.7704468461582971 0.5876334229239573 0.2471813453871599
-0.7978610883980757 0.5316741280504347 0.2841483858515606
-0.8241285084275628 0.4703000901266947 0.3156422449923054
-0.8485298089306638 0.4035402675988516 0.3422753508249433
-0.870229861570865 0.3315601912171647 0.364373198287675
-0.8883338078062741 0.2547653932734344 0.3820440292670954
-0.9019644520590431 0.173865183523155 0.3952607053329352
-0.9103591316395869 0.08988173456563528 0.4039400020199649
-0.9129711016596482 0.004103585499564543 0.4080035883670819
-0.9095534055848508 -0.08200659146419093 0.4074156616349259
-0.9002045526826931 -0.1669341055822913 0.402199910147668
-0.885363148687066 -0.2492457352570464 0.3924393690789671
-0.8657513464132706 -0.32771268638735 0.378257850367173
-0.8422798601541202 -0.4014021879996719 0.3597789886136081
-0.8159371513300836 -0.4697196715885562 0.3370608182540453
-0.7876861877194489 -0.5323928259942039 0.3100134650396746
-0.7583839394509557 -0.5894013017740141 0.2783161976061512
-0.7287225693977032 -0.6408699488952732 0.2413485559380431
-0.699179051028111 -0.686942305565465 0.1981386469819377
-0.6699526396194511 -0.7276393947524229 0.1473240369771923
-0.6408684002794865 -0.7626909157514677 0.08712210140600724
-0.6112227385628162 -0.7913102977539661 0.01532241927046724
-0.5795334479515687 -0.8118832922947833 -0.07061517115995194
-0.5430708742428298 -0.8216321843316216 -0.1731894316047485
-0.4968572619016928 -0.816442575376315 -0.2942012617383585
-0.4327306617479813 -0.7905804080672386 -0.4332745004767667
-0.3526254017744984 -0.734602135781989 -0.5796680326945008
0 0 0
0 0 0
0 0 0
0 0 0
-0.4445995335552088 0.741970110240883 -0.5018083401774246
-0.4814589128267043 0.8017224137973183 -0.3541729612417198
-0.5213644286183763 0.8249080158217051 -0.218416798814859
-0.556188760118186 0.8247963935204027 -0.1018085082590412
-0.587035807556197 0.8095499496119511 -0.00422371046954393
-0.6159291540264931 0.7840344547293593 0.07694966547974159
-0.6442477357335924 0.7509886596538157 0.1447787556014476
-0.672708734547882 0.7117876889127496 0.2020426795883322
-0.7015418076431249 0.6669665434145722 0.2509874939004602
-0.7306199010888265 0.6165774491272605 0.2933032719910794
-0.7595392398529229 0.5604292925758768 0.3301804826856753
-0.7876671828563014 0.4982589917370772 0.3623787882925384
-0.8141754567271174 0.4298733877498616 0.3902911684468994
-0.8380769726313128 0.3552802393126813 0.4140083809526771
-0.8582837300082791 0.2748073193213961 0.4333935579245068
-0.8736983534309174 0.1891913814582999 0.4481716282787242
-0.8833392883626737 0.09961191671628512 0.4580274748124094
-0.886482291664846 0.007648780109542203 0.4626993005478591
-0.8827855659440017 -0.0848413525495232 0.4620515008724628
-0.8723613094759373 -0.1759130812608201 0.4561143864983339
-0.8557686573019117 -0.2637449536494441 0.4450826941188962
-0.8339281937297527 -0.3468268635066419 0.4292725177003259
-0.807984492692022 -0.424080462367894 0.4090437886180995
-0.7791552324316674 -0.4948949408744315 0.384702640062746
-0.7486011315991715 -0.5590840386106808 0.3564005941903158
-0.717333158491309 -0.6167882930561238 0.3240452765861513
-0.6861549670568688 -0.6683497899181556 0.2872279921935604
-0.6556242148508349 -0.7141792361247797 0.2451630224757638
-0.6260124188377788 -0.7546163308226658 0.1966281890182835
-0.5972421444409433 -0.7897654192862734 0.139901406008515
-0.5687839494457201 -0.8192668734865912 0.07270907000116132
-0.5394996106190378 -0.8419501918659467 -0.007748842416874147
-0.507460912661599 -0.8553077335190975 -0.1045566980306879
-0.4700363004121048 -0.8546959482596612 -0.2203649525750847
-0.4257626624156053 -0.8320649010049858 -0.3555195575609559
-0.3836898318686728 -0.7738076605370252 -0.5039879139570759
0 0 0
0 0 0
0 0 0
-0.3301295867700583 0.7370007901517084 -0.5897832578624008
-0.4088696764500291 0.8040452808817963 -0.4316674344577789
-0.4515343167244811 0.8455177770098316 -0.2849849988692528
-0.485128089017376 0.8606244452168706 -0.1548428285116939
-0.5147733200858978 0.8561874850058708 -0.04417487348100447
-0.5425666046337397 0.8386359159313322 0.04807577400551723
-0.5698611768426303 0.8122018989409 0.1248451620381332
-0.5974991939927742 0.7791882484430497 0.1893683887723521
-0.6259077713193635 0.7405864221086348 0.2444815191182302
-0.6551842049594712 0.6965841958463617 0.2924108679045679
-0.68515075133674 0.6469131385886028 0.3347713235391336
-0.7153807493538721 0.5910801046796932 0.3726321152366425
-0.745207083232569 0.5285371377247896 0.4065893470637084
-0.77372698051787 0.4588311525868227 0.4368300963012354
-0.7998202391072681 0.3817563352972754 0.463195083711805
-0.8222013278424488 0.2975096339536288 0.4852555967723516
-0.8395232322367494 0.2068272579263998 0.5024173841671951
-0.8505380728632427 0.1110607942485581 0.5140529997879207
-0.8542946818676909 0.01214729193577814 0.5196470338905121
-0.8503247155644815 -0.08755430969646885 0.518924003061872
-0.8387542775610946 -0.1855427968581486 0.5119229750724433
-0.8202949472064861 -0.2795008707417684 0.4989944517147468
-0.796115316314563 -0.3675723843982627 0.480719195952417
-0.7676406382883328 -0.4485202524529155 0.4577744352711857
-0.7363458230256421 -0.5217468192581322 0.4307842679424482
-0.7035908789417898 -0.5872060293524503 0.4001861493880673
-0.6705183179084787 -0.6452556382982798 0.3661288661024463
-0.6380044325407621 -0.6964939220136397 0.3284000009993872
-0.6066432603667046 -0.7416042158382676 0.2863688909476069
-0.5767383151636469 -0.7812080452885435 0.2389286625724298
-0.5482819260074578 -0.8157038339444718 0.1844293493504799
-0.5209058428213695 -0.8450496565037423 0.1206158404085691
-0.4937955468319136 -0.8684320359893574 0.04462910257164407
-0.4655810920363043 -0.8837674422252531 -0.0467905417890804
-0.4342662469328653 -0.8870639815897389 -0.1566215800616324
-0.3971642139481403 -0.8720503391727464 -0.285987400260314
-0.3490841389183661 -0.8316632984591279 -0.4318291582926122
-0.2642887172358618 -0.7654424412376728 -0.5867276566635782
0 0 0
0 0 0
-0.3598387745290603 0.7689611171076743 -0.5284078507383676
-0.3882731989727449 0.8434798994423423 -0.3711948035684319
-0.4167829568942604 0.8802959972242179 -0.2266515477853528
-0.4431285507625607 0.8907069683472442 -0.1013813791419968
-0.4683092144505408 0.883555790038972 0.003955445527984067
-0.4933483809606688 0.8649942675768836 0.09160945400239555
-0.518988431589567 0.8387238231378576 0.1649040823546104
-0.5456913921937728 0.8066134510759948 0.227146747784103
-0.573679411715631 0.7693178816986358 0.2811439657405629
-0.6029640917388189 0.7267404646806955 0.3290632174359011
-0.6333521922728521 0.6783424514521496 0.3724466661161833
-0.6644302973424088 0.6233509518443079 0.4122692940400399
-0.695537047706962 0.5609202369855515 0.4489952149045189
-0.7257349075693244 0.4902904120295272 0.4826221667176714
-0.7538003448547197 0.4109702541637408 0.5127265258297988
-0.7782586628137947 0.3229484774316598 0.5385329466985807
-0.7974925626839419 0.2269054384707243 0.5590344662507013
-0.8099408894843506 0.1243626977758309 0.5731750822769737
-0.8143692847385577 0.01768539302005196 0.5800774904684159
-0.8101438967572692 -0.09012771643906023 0.5792614791926243
-0.7974039471688233 -0.1958552590772898 0.5707781202282961
-0.7770511341832506 -0.2965473222151158 0.5552037648931855
-0.7505571637948781 -0.3899320806491161 0.5334950012482208
-0.7196742050436198 -0.4746168027997123 0.5067622017228715
-0.6861540653731067 -0.5500727107807908 0.476038455827079
-0.6515465274298788 -0.6164707736038736 0.4420983011574542
-0.6170939813853602 -0.6744570182166432 0.4053427546117962
-0.5837033890118514 -0.7249324116701605 0.3657367252083987
-0.5519616943184245 -0.7688672210682496 0.3227715668579269
-0.5221642653481944 -0.8071456993810886 0.2754274858542503
-0.494332854789292 -0.8404145564607423 0.222122493153579
-0.4682089314670935 -0.8688899974903421 0.1606566797729705
-0.4432144457087699 -0.8920663592621464 0.08819617785282005
-0.4183883955218564 -0.9082671328115852 0.001402122272907564
-0.3923432239585085 -0.9140221470400003 -0.1031033914778326
-0.3633700406502182 -0.9033955713321151 -0.2276810384186154
-0.3301276023981205 -0.8675837588361595 -0.3719061542090805
-0.2959186958950509 -0.7947563169842784 -0.5299004831412752
0 0 0
0 0 0
-0.342206685739728 0.8119442636464204 -0.4729070701170605
-0.3554826449513104 0.8792659161009226 -0.3170544715370291
-0.3747389664706459 0.9101362656586677 -0.1766994197540175
-0.3955218770138133 0.9167110196649826 -0.05659815569660315
-0.4170776164974542 0.9078106898815328 0.04388636637518992
-0.4396105345997954 0.8890665520622599 0.1276841567031942
-0.4634395526940932 0.8636485170947705 0.1983305824090221
-0.4887968886539421 0.8330234053078214 0.259132413741674
-0.5157951197274712 0.797552033425227 0.3128356572461152
-0.5444179803815199 0.75689653093863 0.3615476512029557
-0.5744974944397913 0.7102809976962231 0.4067597979078797
-0.6056725109664759 0.6566653751975698 0.44939002489619
-0.6373323495754949 0.5948894010228277 0.4898102456413907
-0.6685558387765967 0.5238343574469414 0.5278547682799415
-0.6980655209074076 0.4426386834241131 0.5628281482449476
-0.724231384414436 0.3509800261392196 0.5935502700533977
-0.7451694433151638 0.2493951073080584 0.6184857162458726
-0.7589734240669056 0.1395476390141084 0.635991979513692
-0.76407263916742 0.02430121758016552 0.6446723608933878
-0.7596252841724224 -0.09253812184905107 0.6437438338738601
-0.7457812433008425 -0.2068199163405531 0.6332739212580411
-0.723670243962432 -0.3147956454512211 0.614170236667573
-0.6951175005957039 -0.4137091650771525 0.5879254945116312
-0.6622329347199495 -0.5020408667259093 0.5562396141136481
-0.6270421721444706 -0.5794179189141445 0.5206659097670455
-0.5912516075134149 -0.6463292586053787 0.4823691802794035
-0.5561546555432355 -0.703791565149977 0.4420061446872998
-0.522637272359181 -0.753058808672787 0.3996907707481835
-0.4912328283706592 -0.7954045870958327 0.3549955649833805
-0.462186209879549 -0.8319648506305357 0.3069501502076309
-0.4355033011967382 -0.8636038681327233 0.2540181757137476
-0.4109720225097657 -0.8907549444682172 0.1940557281289449
-0.3881516920860278 -0.9131766175513647 0.1242848707132168
-0.3663426283726058 -0.9295603071805411 0.04136077793596685
-0.3445992939826829 -0.9369366441009176 -0.05831853502572142
-0.321999690623006 -0.9298891226327248 -0.177826935102726
-0.2988199126323682 -0.8997158291207774 -0.3181479005806813
-0.2803580305559599 -0.8338828373464328 -0.4754353670919377
0 0 0
0 0 0
-0.2939206432066939 0.8556604027342519 -0.425976443820102
-0.3071934648604798 0.9121818548117082 -0.2712129032684181
-0.3241847566195403 0.9362734126582417 -0.1352639653596565
-0.3422415084853417 0.9393997974969955 -0.01996923464434616
-0.3612503802674298 0.9293344143602064 0.07639181266607768
-0.3815118496009198 0.9109088132966529 0.1571427455295602
-0.403297168402356 0.8867455189123074 0.2259065706162263
-0.4267866528809122 0.8579509740074202 0.2859602754272452
-0.4520755339066045 0.82463806341843 0.3399996705947801
-0.4791708649243906 0.7862678659942143 0.3901001475422883
-0.5079647228838102 0.7418577337790103 0.4377430103814842
-0.5381825919523169 0.6901152755402408 0.4838392338220442
-0.5693097007804641 0.6295551841646178 0.5287217932795205
-0.6005020874563636 0.5586538077932961 0.5721041565996529
-0.6305016336506544 0.4760911477093596 0.6130292888897235
-0.6575949822077365 0.3811121671575183 0.6498633359558806
-0.6796810424481596 0.273987528654291 0.680414957712201
-0.6945177186961595 0.1564596162827213 0.7022574505761726
-0.7001698330937856 0.03194747754336275 0.7132612168792271
-0.695553002082716 -0.09474441716785262 0.7122004750835574
-0.680822482324057 -0.2182856848748322 0.6991652932896726
-0.657361627328186 -0.3339410015942012 0.675543557715341
-0.6273721199284891 -0.4384163689053174 0.643580073193934
-0.5933120002617046 -0.5301301567750808 0.6057581094984058
-0.5574337039275097 -0.6089866497670088 0.5642720320299525
-0.5215319810399772 -0.6759108837310827 0.5207195694482619
-0.4868808650780062 -0.7323743368184569 0.4759987962071092
-0.4542861297859216 -0.7800266903420958 0.4303283335292766
-0.4241820379124026 -0.8204537147882238 0.3833083622916209
-0.3967267391037059 -0.8550280339080525 0.3339684950881889
-0.3718716576392099 -0.884802221129913 0.2807783818748126
-0.3493952128930934 -0.9103877853261113 0.2216237025600088
-0.3288969407991301 -0.9317617066850912 0.1537755646657123
-0.3097587523890181 -0.9479373934706133 0.07392031776540144
-0.2911079708538647 -0.9564458067260995 -0.02162332308886158
-0.2719175511409436 -0.9526200123840077 -0.1362936439714061
-0.2517173619182719 -0.9287732675645636 -0.2720635719208817
-0.2337057965678123 -0.8731688321773236 -0.4277356557088647
0 0 0
-0.1266262006326531 0.8192477281254136 -0.5592843331210761
-0.213311059420401 0.8957677278258185 -0.3899981662966067
-0.2469197715104934 0.9397725830389534 -0.2363432220426437
-0.2672808556820864 0.9580453201534751 -0.1034896551249273
-0.2844591567650519 0.9586515743857762 0.008375384181493108
-0.3014833022948399 0.9480214266782965 0.1017997691365008
-0.319443334720047 0.9302641209496431 0.1804567016675279
-0.3388026690525205 0.9075627463208555 0.2480778364413754
-0.3597908482690557 0.8807467857134815 0.3079539656461714