# OOMMF: rectangular mesh v1.0
# Segment count: 1
# Begin: Segment
# Begin: Header
# Title: 
# Desc: time = 7.2e-10
# Desc: stepsize = 1.229062156198835e-13
# Desc: step = 4606
# meshunit: m
# valueunit: (none)
# valuemultiplier: 384000.0000000001
# xmin: 0
# ymin: 0
# zmin: 0
# xmax: 9.357999999999999e-08
# ymax: 9.357999999999999e-08
# zmax: 2.3395e-08
# ValueRangeMaxMag: 1
# ValueRangeMinMag: 0
# meshtype: rectangular
# xbase: 1.16975e-09
# ybase: 1.16975e-09
# zbase: 1.16975e-09
# xstepsize: 2.3395e-09
# ystepsize: 2.3395e-09
# zstepsize: 2.3395e-09
# xnodes: 40
# ynodes: 40
# znodes: 10
# End: Header
# Begin: Data Text
0 0 0
0 0 0
0 0 0
0 0 0
0 0 0
0 0 0
0 0 0
0 0 0
0 0 0
0 0 0
0 0 0
0 0 0
0 0 0
0 0 0
0 0 0
0 0 0
-0.836671070908824 0.02191025430691205 -0.5472672654750032
-0.8462518422818821 0.04049377582987981 -0.5312420103432702
-0.8564343534812401 0.02134349001772244 -0.5158145535083639
-0.8615946250545528 -0.01347129521217228 -0.507418196641006
-0.8599765467720246 -0.0527635435860663 -0.5075986086173842
-0.8516806270359077 -0.08789166061999514 -0.5166383314516858
-0.8387298740130716 -0.1075642742844401 -0.5338184385497357
-0.8273014541606526 -0.08907409095896053 -0.5546513411716443
0 0 0
0 0 0
0 0 0
0 0 0
0 0 0
0 0 0
0 0 0
0 0 0
0 0 0
0 0 0
0 0 0
0 0 0
0 0 0
0 0 0
0 0 0
0 0 0
0 0 0
0 0 0
0 0 0
0 0 0
0 0 0
0 0 0
0 0 0
0 0 0
0 0 0
0 0 0
0 0 0
0 0 0
-0.7827955753466422 0.2329336156899692 -0.5770381424995372
-0.8105569185736363 0.2624788432905683 -0.5235478379071549
-0.8473103230140929 0.2451081030745804 -0.4711552125583818
-0.8836479283279057 0.1968368411996425 -0.4247606346030035
-0.91535593415682 0.1149711039497163 -0.38588231244834
-0.9282857763057685 0.07424094178752347 -0.3643813936947077
-0.9362471241045599 0.0352484722522611 -0.3495695464565268
-0.9397299859965278 -0.007622905998478143 -0.3418324804975434
-0.9382282571234776 -0.05227981412694126 -0.3420446733540713
-0.9317793813981379 -0.09533795398699504 -0.3502825415730509
-0.9209158152870233 -0.1346635099031795 -0.3657592107586527
-0.9048872350060837 -0.1756811590081406 -0.3877050712753192
-0.8684454796310612 -0.2570893900820022 -0.4239192074153274
-0.8277892826798033 -0.3063125940257893 -0.4700398900323756
-0.7873754590189677 -0.3250677064177986 -0.5238042313488326
-0.7571875791520037 -0.2967706638744115 -0.5818884283447028
0 0 0
0 0 0
0 0 0
0 0 0
0 0 0
0 0 0
0 0 0
0 0 0
0 0 0
0 0 0
0 0 0
0 0 0
0 0 0
0 0 0
0 0 0
0 0 0
0 0 0
0 0 0
0 0 0
0 0 0
0 0 0
0 0 0
-0.756429794525556 0.3272316300368555 -0.5663333172765371
-0.7940661069658895 0.3554849788743503 -0.4930410201623576
-0.8491112770845384 0.3180717444309545 -0.4217112809998247
-0.8829627285892767 0.2966635459533082 -0.3638235292344185
-0.9128537583388029 0.2632486315067603 -0.3120868050663784
-0.9393407275324349 0.2142798928398541 -0.2678117344766201
-0.9602014184637941 0.153072202636977 -0.2336282019790869
-0.9722116594613998 0.0995402078516979 -0.2118873196492689
-0.9789477948126253 0.04887164328484881 -0.1981736044838871
-0.9815136426499143 -0.001954763002878698 -0.1913822044854173
-0.9800450236896662 -0.05314947424324318 -0.1915382074907979
-0.9745388643934965 -0.1040051831563138 -0.1986376692957689
-0.9648092258701 -0.1547321968323036 -0.2126055148376607
-0.9495656134767357 -0.2083280152942453 -0.2343599448414988
-0.9249297166272096 -0.2695884477424886 -0.2680057614002068
-0.8947618570468557 -0.3190532413324536 -0.3124199871476156
-0.8614552499324016 -0.3532619981484772 -0.3648298411973012
-0.824357251485086 -0.3756239017389793 -0.4234876696745014
-0.7653919182067264 -0.4134345431074506 -0.4932008618294992
-0.7249004514075467 -0.3867902910565534 -0.5700110580449479
0 0 0
0 0 0
0 0 0
0 0 0
0 0 0
0 0 0
0 0 0
0 0 0
0 0 0
0 0 0
0 0 0
0 0 0
0 0 0
0 0 0
0 0 0
0 0 0
0 0 0
0 0 0
0 0 0
-0.7605663560165965 0.4080432524086581 -0.5050143782699649
-0.811662995249183 0.4075271949487566 -0.4184791124062496
-0.851382009973686 0.3973557644912833 -0.3424281961502492
-0.8893079890640063 0.3657277398158021 -0.2745442057595776
-0.9187063809492607 0.3291837024128834 -0.2182124553476665
-0.943142913152182 0.2853672747084194 -0.1704316986252974
-0.9635901683726033 0.2331132007052071 -0.1309664959927959
-0.9794467646869586 0.1746438199295093 -0.1009136824453373
-0.9899244162754178 0.1163825586770401 -0.08065203095742761
-0.9959284757529134 0.05905349723052533 -0.06811134743434616
-0.9980688411130239 0.00202948084126467 -0.06208437490077252
-0.99655089804696 -0.05494294380846341 -0.06218987479852859
-0.9913676346422006 -0.1118467095682629 -0.06841437380170962
-0.9822831017789307 -0.1689438707335578 -0.08110410902737927
-0.9686272343099513 -0.2268802890955531 -0.1014229528902204
-0.9494714949602965 -0.2849957475863803 -0.1314583740791701
-0.9258111280368876 -0.3370351283349732 -0.1711171454626729
-0.8982781293887577 -0.380838677621546 -0.2192220424348471
-0.8657473201199523 -0.4176573415547454 -0.2757606258162015
-0.8243734313397824 -0.4499254444123172 -0.3434756762442594
-0.7812953262700982 -0.46134667035656 -0.4204008359880078
-0.7269282561658355 -0.4623253928968771 -0.5077701659909185
0 0 0
0 0 0
0 0 0
0 0 0
0 0 0
0 0 0
0 0 0
0 0 0
0 0 0
0 0 0
0 0 0
0 0 0
0 0 0
0 0 0
0 0 0
0 0 0
-0.6561219601751546 0.498057778630513 -0.5669589248980486
-0.7075301465891259 0.5334464815277487 -0.4635039838159268
-0.7875192663424482 0.4983120939868759 -0.3626271668337416
-0.8370247136918012 0.4712998082135327 -0.2779678388717746
-0.8736328806756424 0.4409548695692301 -0.2057289304049417
-0.9043359768664492 0.4018613848904051 -0.1438188731668067
-0.9295862184727619 0.3568546381193377 -0.09232675494257464
-0.9506393472338865 0.3062953765287328 -0.04967870577874883
-0.9680543577520496 0.2502801072944518 -0.01518645218422865
-0.9816948304320378 0.1901384715888369 0.01107346038387219
-0.9912792261748616 0.1284729604130588 0.02932906743951323
-0.9969550357458782 0.06650877041347099 0.04070921466968132
-0.9989243624190063 0.004544915215335247 0.04614609313329362
-0.997291125548587 -0.05733724289637807 0.0460744124115904
-0.9920609916049308 -0.1190575286356311 0.0405005408731365
-0.98313964687802 -0.180541765235861 0.02900182308202075
-0.9703388595624408 -0.2415141147720067 0.01065035158833063
-0.9535542888358696 -0.3008114485077965 -0.01570639008047114
-0.9331501210575096 -0.3559427961762535 -0.05035451738011611
-0.9092492396269471 -0.4056920388037211 -0.0931653899744851
-0.8811689664229119 -0.4501077971826162 -0.1447211923962398
-0.8474709054484535 -0.4890066898943025 -0.2065563401520164
-0.8075997540616711 -0.5196884329405871 -0.2787589817517721
-0.7542010193154712 -0.5473125962167998 -0.3628081372928811
-0.6692249528353332 -0.5828813002182324 -0.4608550231455096
-0.6138854760652863 -0.5495957114994059 -0.5666473119829988
0 0 0
0 0 0
0 0 0
0 0 0
0 0 0
0 0 0
0 0 0
0 0 0
0 0 0
0 0 0
0 0 0
0 0 0
0 0 0
-0.6349794844766572 0.5443532779730799 -0.5481610740044579
-0.6981383770778343 0.567859847224727 -0.4360481628914823
-0.7495122944932227 0.5729769765746118 -0.3315549799338277
-0.8012835543437136 0.5498471886104139 -0.2358235245168056
-0.8418968049992062 0.5167706991788121 -0.1554278424297574
-0.8742495269308538 0.4773486804461712 -0.08846469316895254
-0.9013739873433801 0.431813494556137 -0.03258896837753711
-0.9244126658850276 0.3811529501084897 0.01355181814114549
-0.944018929178024 0.3258726936886069 0.05133467504238742
-0.9604149572056258 0.2663506351589179 0.08161157470699976
-0.9734667904384968 0.2034418726592457 0.1047559657598089
-0.9829228553828484 0.1384945943974096 0.1211689221241338
-0.9886509240156524 0.07255074471538006 0.1315512823359763
-0.9906143473470095 0.006222447167413756 0.1365448497069973
-0.9888155457092747 -0.06010293194364445 0.1364970847140927
-0.9832761422017714 -0.1260949076674777 0.131408152095414
-0.9740394524892124 -0.1913709609078968 0.1209309733513409
-0.9611960544836515 -0.2553389896174826 0.1044229152350359
-0.9449419489528377 -0.3170090678934234 0.08117859312993013
-0.9255822110862872 -0.375123093578275 0.05079601544297951
-0.903239833399728 -0.4289410997892073 0.01293585218129597
-0.8776058020841558 -0.4782316206377569 -0.03320501724753655
-0.8478796144044536 -0.5226683769486485 -0.08898273548964364
-0.8127259402721692 -0.5614415203134248 -0.1557561083131844
-0.7688110822510658 -0.5944405581451316 -0.2357327780348938
-0.7130172874547959 -0.6182214447929189 -0.3307696978091557
-0.6574793177139421 -0.6147586729971446 -0.4356520638688612
-0.590402163382314 -0.5925907903380713 -0.5479611671277289
0 0 0
0 0 0
0 0 0
0 0 0
0 0 0
0 0 0
0 0 0
0 0 0
0 0 0
0 0 0
0 0 0
-0.5925518114225554 0.5897951639629549 -0.5486565550011762
-0.6611511425341556 0.617343404161949 -0.4263405775474772
-0.7144936257661143 0.6253027991888267 -0.3138395578415967
-0.7585140999013805 0.6157567257683898 -0.2133073250542271
-0.7981091450721343 0.5893594675942041 -0.1252086678680933
-0.8320722414130181 0.5522923524484052 -0.05127321422460068
-0.861214804594769 0.5081450061753399 0.009884990938643132
-0.8866874765783691 0.4584099059115181 0.06037944220739964
-0.9091009841083497 0.403918569274139 0.1019077528393298
-0.9286753536802161 0.3451352722101634 0.1358076998676481
-0.9453397965449903 0.2824488550720856 0.1629580109621603
-0.9588175376349254 0.2164777023075803 0.1838649883129693
-0.9687566623317289 0.1481125612121397 0.1989301344670237
-0.9748632787871155 0.0782487443678521 0.2086114131040972
-0.9769523018915021 0.007643112075638691 0.2133208444261691
-0.9749507969241872 -0.06306285391407825 0.2132932723578111
-0.9688946767569937 -0.1332670487900852 0.2085257755260512
-0.958930953324767 -0.2023317498110254 0.1987795003868902
-0.9453231302499173 -0.269517153328307 0.1836428149324193
-0.9284416061567495 -0.3339713330641486 0.1626632492249854
-0.9086934141506996 -0.3948786295406747 0.1354516408583639
-0.8863626858812514 -0.4517231990733269 0.101525073239731
-0.8614701632871349 -0.5042474547619905 0.06003051001025225
-0.8336883963331425 -0.5521509346003446 0.00964381871658879
-0.8022373865151773 -0.5947944479026758 -0.05132972259274646
-0.7657253641312429 -0.630905247583079 -0.1249929409935153
-0.7230991841075594 -0.657150419087457 -0.2127930840891239
-0.6754792282274542 -0.6675381510061862 -0.313242125494775
-0.6178599579327491 -0.6611664028757265 -0.4255679265307871
-0.5449303026781706 -0.6351165244795868 -0.5474285026887503
0 0 0
0 0 0
0 0 0
0 0 0
0 0 0
0 0 0
0 0 0
0 0 0
0 0 0
-0.5496485505763061 0.6132466504559395 -0.5672874197035712
-0.6148322464740302 0.6569306513444577 -0.4363753292978915
-0.6676352017103035 0.675020147795136 -0.3140239441632985
-0.7110767712330024 0.6724575155562657 -0.2053550953464326
-0.7481998726964091 0.6540827111199051 -0.1112328976117743
-0.7815104727344686 0.6231269450592429 -0.03088998781938363
-0.8116589823859146 0.5829995803307775 0.03634811750831587
-0.8391073362900813 0.5361165299902467 0.09207575389526093
-0.8642123950614241 0.4837830494948903 0.138169813069356
-0.887072661954263 0.4266684922789415 0.1762273818388959
-0.907542831458064 0.3651446718452055 0.2074496991854569
-0.925287087257765 0.299546552272157 0.2326277480781349
-0.9398439727312502 0.2303747002890196 0.2522316482669943
-0.9507158863420917 0.1583551279880478 0.2665763622241462
-0.9574673699274003 0.08434617152738685 0.2759383244005424
-0.9597951546363335 0.009238333432577744 0.2805493082009017
-0.9575642006015597 -0.06608563150959203 0.2805414248097304
-0.9508222656404971 -0.1407495168641508 0.2759104794399431
-0.9398008313525991 -0.213874184417858 0.266518724724097
-0.92489969226934 -0.2845843539263706 0.252135488855476
-0.9066431457802513 -0.3520586770098076 0.2324927830101249
-0.8855951884648493 -0.4156346061534844 0.207289740063384
-0.8622458030436043 -0.4749002060161895 0.176073761416827
-0.8369130559385028 -0.5296349461800539 0.1380701292261546
-0.8096726430386061 -0.579612103346259 0.0920870282363536
-0.7802950290524455 -0.6243439410911038 0.03652822003425505
-0.7482197119085632 -0.6627499491085426 -0.03049209189429834
-0.7127170302832447 -0.6926769286578256 -0.1106033781102233
-0.6728321825136887 -0.7109593168805757 -0.204532892011458
-0.6257276346115254 -0.714485039692077 -0.3130112703077572
-0.5683399349535577 -0.698253217222817 -0.4352380532248657
-0.4985928138690153 -0.6563703298147791 -0.5662006676938974
0 0 0
0 0 0
0 0 0
0 0 0
0 0 0
0 0 0
0 0 0
0 0 0
-0.5830386774877624 0.6686371864414483 -0.4615086277210693
-0.6183974637410867 0.7125271364265514 -0.3314960885053838
-0.6573466834905043 0.7226934537585652 -0.213563830267559
-0.6928888437312452 0.7123861705187916 -0.1114046421220779
-0.7250736582874013 0.6882330771639157 -0.02456464034362766
-0.7550217837491614 0.6538913054539901 0.04866484065432312
-0.7833647662826853 0.6117487049298064 0.1100143852574663
-0.8103455411712521 0.5633206614857101 0.1612759630173434
-0.8359468239559776 0.5094345742471946 0.2041306495347831
-0.8599314990487937 0.4504931511557367 0.2399452806484603
-0.8818766461091417 0.3867198479367098 0.2697060256262342
-0.9012148830849499 0.3183644352219546 0.2940337070677189
-0.9172891220567668 0.2458584088594447 0.3132639611404854
-0.9294297010134766 0.1698837689990065 0.3275666892476876
-0.9370467822736512 0.09134696370389664 0.3370445965338634
-0.9397154236877894 0.01130942141134481 0.3417704192445837
-0.9372364558497623 -0.06908132563679951 0.3417829666241989
-0.9296676088425494 -0.1486507250478816 0.3370772893739876
-0.9173232352528707 -0.2262548483074302 0.3276077314145493
-0.9007404978709671 -0.3008460698036756 0.313302087096214
-0.8806109710375333 -0.371550168441092 0.2940659620216663
-0.8576843597004071 -0.4377400689135353 0.26974278710074
-0.8326653743345044 -0.4990618549347374 0.2400117483238644
-0.8061289784347422 -0.5553664578126117 0.2042649447762167
-0.7784581582038321 -0.6065581773972715 0.1615242191078377
-0.7497910714796833 -0.6523955519896789 0.1104236970646711
-0.7199714635884509 -0.6922522462507524 0.04927391986731641
-0.6884951149954313 -0.7248523614379241 -0.02373880252439712
-0.6543785131171622 -0.7480673139197987 -0.11038140883042
-0.616093042083411 -0.7584844250146668 -0.2124399691832454
-0.5733588297293017 -0.7496026299422229 -0.3306895062670533
-0.5338690501190078 -0.707758939205387 -0.4626673981381151
0 0 0
0 0 0
0 0 0
0 0 0
0 0 0
0 0 0
0 0 0
-0.4625310914362549 0.7263577181718861 -0.508398912967875
-0.5475524148869101 0.7537002076956232 -0.3634863819609847
-0.5947046914740545 0.7683859738886193 -0.2364515279502064
-0.631187708151917 0.7653699801356759 -0.1257412843303452
-0.6630442687114471 0.7479270223842354 -0.03126446731280556
-0.6925518071041642 0.7197373492453812 0.04847826913151889
-0.7209151003667944 0.6833055153381681 0.1156502951642337
-0.7486890280210781 0.6401292688143805 0.1723347281543076
-0.7759816681584993 0.5910139607524562 0.2203518751398461
-0.8025913401556105 0.536306534991747 0.2611942595700878
-0.8280840752301817 0.4761010864838782 0.2959806071333809
-0.8518398707701336 0.4104260998944309 0.325452379145964
-0.8730934516625996 0.3394116988677316 0.3500107474572851
-0.8909887145186848 0.2634256654828773 0.3697918730383948
-0.9046592127242535 0.1831534829786449 0.3847681256366285
-0.9133322232416111 0.09960667173959828 0.3948452366858374
-0.9164378904847531 0.01406993860189614 0.3999295309321307
-0.9136992362523877 -0.0719921741291209 0.3999635390082014
-0.9051827342692421 -0.1570526503614593 0.3949413660219696
-0.8912972570610093 -0.2396498622959125 0.3849118640118417
-0.8727397507994209 -0.3185108345736753 0.3699678035096367
-0.8503980262602148 -0.3926520556543348 0.3502107367331214
-0.825232174775868 -0.4614366813234259 0.3256808972658879
-0.7981616465870546 -0.5245667281832811 0.2962561958854684
-0.7699776061925176 -0.5820027960934719 0.2615477610330855
-0.7412809504594255 -0.6338297193830068 0.2208221893579279
-0.7124305304829331 -0.680093110054076 0.1729627153255303
-0.6834810572026 -0.7206164632193011 0.1164712727779731
-0.6540866852698534 -0.7547973187508741 0.04951379362547736
-0.6233476828345844 -0.7813685251177873 -0.03001490063297935
-0.589612790917209 -0.7980620392659119 -0.1243130655625261
-0.550141430674936 -0.8013470647270426 -0.2349197482296604
-0.4986568899145106 -0.7877098212477502 -0.3617382253102711
-0.4084594367876144 -0.7608939669698743 -0.5041837557160999
0 0 0
0 0 0
0 0 0
0 0 0
0 0 0
-0.3870598949890874 0.7243076088927987 -0.5705813924332203
-0.4616397986268421 0.7807822922572824 -0.421031719020351
-0.5200086728503935 0.8071619503688324 -0.279428999993119
-0.5617838766918676 0.8123554187790287 -0.1564530263989954
-0.5951527127449099 0.8019253397083194 -0.05204803594825165
-0.6247116269408131 0.7800349650891559 0.03578877482285898
-0.652766312185885 0.749580439682224 0.1096599567802351
-0.6804610472209063 0.7122712230612243 0.1721698812623587
-0.7082700088338101 0.668935815788847 0.2255625610367638
-0.7362259922509117 0.6198333368874634 0.2716209174881641
-0.7640425282572458 0.5648896927840694 0.3116707397247848
-0.7911801381764537 0.5038829555533951 0.3466063416296103
-0.8168846855416183 0.4366074203066689 0.3769262143453627
-0.8402228915366109 0.36302919757586 0.4027844265178127
-0.860137619694768 0.2834273656149287 0.4240662726584131
-0.8755389884453658 0.1984978467040406 0.4404884613311955
-0.8854326433560645 0.1093929486708797 0.4517103240579985
-0.8890667307015351 0.01767994959846247 0.4574360804985534
-0.8860633914543458 -0.07478168729045022 0.4574924759713708
-0.8764968750536293 -0.1660264668787482 0.4518721504109119
-0.8608922014478393 -0.2541956604867107 0.4407370913322556
-0.8401428676285522 -0.3377297285230342 0.4243802451158983
-0.8153720548641243 -0.4154992372957777 0.403148602816978
-0.7877764507057357 -0.4868514266993155 0.3773379811711432
-0.758489354756498 -0.5515714365715999 0.3470775836602129
-0.7284826600289547 -0.6097768762808474 0.3122261603234259
-0.6985050244887185 -0.6617754800665964 0.2722938573428351
-0.6690375472752335 -0.7079100289927227 0.2263893795818646
-0.6402419823499623 -0.7483966159821371 0.1731840328179116
-0.611875434672436 -0.7831427060249568 0.110887124790596
-0.5831453848875217 -0.8115135891253942 0.03724452643280892
-0.5524643080289037 -0.8320141353169932 -0.05035540672917238
-0.5169778010381536 -0.8419411432580463 -0.1544961634575066
-0.4715527603497407 -0.8371901534384013 -0.2770390607700026
-0.4078372328673701 -0.811968116001727 -0.4175842071770576
-0.3275963775321143 -0.7568852640943815 -0.5655133158685252
0 0 0
0 0 0
0 0 0
0 0 0
-0.41378822314299 0.7648437155509991 -0.4937543895200417
-0.4502965584231977 0.8239143945811261 -0.3440902205443213
-0.4893995821997874 0.8470862319188238 -0.2072027138727716
-0.5230803234522133 0.847555326310789 -0.08964900478722065
-0.5525770119873336 0.833413681762821 0.008959959469157674
-0.5800467515696229 0.8094411747736898 0.09138244128122482
-0.6069957286163381 0.7782684664137197 0.1607929713251074
-0.6342646776392226 0.7411363374881615 0.2200573742319185
-0.6622028344646127 0.6984133023695465 0.2714889778615265
-0.6907925273568366 0.6499474285493883 0.316818598365045
-0.71971723377831 0.595304680383315 0.357238633011907
-0.7483926798798191 0.5339477463421147 0.3934567331721225
-0.7759809127190788 0.4653974724320064 0.4257450125950564
-0.8014097774439862 0.3893990909697947 0.4539941812061882
-0.8234226711100576 0.3060922147337985 0.4777893477060108
-0.8406802766015788 0.2161596186772051 0.4965195784522676
-0.8519215186569896 0.1209121202329619 0.5095193668840639
-0.8561645463719847 0.02226425422633146 0.5162233746348553
-0.8528990166401633 -0.07742520032072506 0.5163028237086615
-0.8422057011162283 -0.1756311245184035 0.5097482369834376
-0.8247555336763376 -0.2699908512092662 0.4968734747735631
-0.8016861631104474 -0.3585901484377913 0.4782388538383423
-0.774401828631088 -0.4401333022505525 0.4545156587652951
-0.7443619824034613 -0.5139743630105493 0.4263280348748938
-0.7129106601477174 -0.5800331341495018 0.3941065261277095
-0.6811677624874747 -0.6386430309907938 0.3579742425296807
-0.6499743162619716 -0.6903768249167442 0.3176684243321281
-0.6198672868968378 -0.7358778854945871 0.2724853835991353
-0.5910557240017253 -0.7756994151492433 0.2212318884381663
-0.5633729052428587 -0.8101300915503078 0.162173377602215
-0.5361837728866056 -0.8389632705901824 0.09299243137862707
-0.5082335991744822 -0.8611512691379908 0.01082129068914615
-0.4774666512977637 -0.8742809523175503 -0.08751236091670801
-0.4411110994164916 -0.8737788605702214 -0.2047718261680027
-0.3975568351922351 -0.8516649829853653 -0.3414898527752629
-0.3557251681863878 -0.7945054511504593 -0.4921592148999855
0 0 0
0 0 0
0 0 0
-0.2971648770496992 0.7566404558303313 -0.5823987091751704
-0.3760402233293449 0.8238807464845287 -0.424045122611393
-0.418093812758064 0.8653470607751595 -0.276354895272757
-0.450564052897639 0.8808343354173773 -0.1453372209252677
-0.4787053341864757 0.8773233834184607 -0.03383613347589365
-0.5047349815142065 0.8612294775825703 0.05938337628247439
-0.5301319135669204 0.8367084436080785 0.1374013632131124
-0.5558680753055191 0.8059598685022811 0.203566630909692
-0.582504092044386 0.7698483115327532 0.2608113494112432
-0.6102730177604591 0.7284021153851119 0.3114437382514466
-0.6391298258729168 0.6811492557849043 0.3571396883900269
-0.6687661492707739 0.6273406837854006 0.3989931127942011
-0.6986005596642386 0.5661208275587082 0.4375665282457692
-0.7277589944046152 0.4966933882369468 0.472929724319464
-0.7550666390585041 0.4185120593748339 0.5046999373278439
-0.7790805317703822 0.3315007971118108 0.5321097128700171
-0.7981947439342063 0.2362754194067526 0.5541291157663252
-0.8108371307900621 0.1343028692502854 0.5696541816253784
-0.8157411531182047 0.02791313000988808 0.5777432200229027
-0.8122250227366632 -0.07990254185321319 0.5778460835255542
-0.8003738989186296 -0.1858981214795735 0.5699504455302726
-0.7810403780232467 -0.2870702686828324 0.5545868631113341
-0.7556601268373672 -0.3810767132028304 0.5326896951909821
-0.7259638985099766 -0.466453484230279 0.5053687417219515
-0.6936925063018926 -0.542612911522601 0.4736685918968703
-0.6603878167863465 -0.609685268637295 0.4383740465023353
-0.6272799201443016 -0.6682915185256811 0.399882917927732
-0.5952512318061696 -0.7193155865853422 0.3581355301120268
-0.5648423954886392 -0.7637083720205898 0.3125741364289683
-0.5362661433438928 -0.8023212148243428 0.2621054973590924
-0.5094035070006965 -0.8357401389653252 0.2050524010530221
-0.483765246021674 -0.8640722857949397 0.1391052539004075
-0.4584107504516047 -0.8866217330325518 0.06133095780069406
-0.4318396476973378 -0.9013959034980459 -0.03162188852013316
-0.4019201909546878 -0.9044645159239889 -0.1428429191011261
-0.3658257201208291 -0.8895658701793836 -0.2735765068679549
-0.3182127716253393 -0.8495189601166429 -0.4207828042789495
-0.2331249799988474 -0.7833595650347361 -0.5761948763822229
0 0 0
0 0 0
-0.3255322623983938 0.7868678745237756 -0.5242782602590139
-0.3537378583348922 0.8610334099798712 -0.3653641943035442
-0.3813315101173356 0.8979308591045005 -0.219787287301803
-0.4062031403875573 0.9089612394191133 -0.09374686113654758
-0.4294695197544007 0.9029970128238198 0.01234205951947334
-0.4522667037613505 0.8861550926219911 0.1009157098223692
-0.4754556820222278 0.8620685530554972 0.175441455379219
-0.4996255040681678 0.8325186463593305 0.239347151954346
-0.5251342577588649 0.7980504522689601 0.2955494661835034
-0.5521383607288818 0.7584233695174311 0.3463195391274493
-0.5805952642170631 0.712904119208525 0.3932897862699147
-0.6102394552223708 0.6604593222984336 0.4374943323964293
-0.6405373659484385 0.5999088485774577 0.4793967628408689
-0.6706319742545713 0.5300927971657918 0.5188972745162205
-0.6992978909118065 0.4500912258884542 0.5553380485294764
-0.7249423229138481 0.3595114700727763 0.5875458546653056
-0.7456990400388734 0.2588150984147583 0.6139606555127624
-0.7596555809074244 0.1495957962065042 0.63288584764833
-0.7652094081143996 0.03466503311337202 0.6428474914102553
-0.7614651969407403 -0.08219108202618373 0.6429738562984997
-0.748508859039439 -0.1967999101719607 0.6332489899682311
-0.7274112623533443 -0.3053503482709481 0.6145193407959786
-0.6999559391293888 -0.4049993730624675 0.5882492593250781
-0.6682314104561289 -0.4941385397902566 0.5561419653054107
-0.6342566442362881 -0.5723225815106372 0.5197743471306774
-0.599736882459186 -0.6399922152317175 0.4803390846692935
-0.5659603821482765 -0.6981385762999252 0.4385104036627751
-0.5337958238361179 -0.7480049979692193 0.3943989623061749
-0.5037387125917017 -0.7908594515743728 0.3475465972958685
-0.475965363030418 -0.8278254767463961 0.2969207861449303
-0.4503681273894074 -0.8597331633758819 0.2408888491056753
-0.4265574840528437 -0.886936557874057 0.1771785966335293
-0.4038259038834506 -0.909033712669191 0.1028705428370065
-0.3810838038847512 -0.9244263478916857 0.01452796408199427
-0.3568145852752903 -0.9296990133983652 -0.09134055080263212
-0.3291775695753177 -0.9189416554971578 -0.2172288228588214
-0.2966930733582098 -0.8833453638309772 -0.3628693820365362
-0.2625382950480362 -0.8111054238672695 -0.5226678055958363
0 0 0
0 0 0
-0.3068268936167116 0.8273394847728367 -0.4704961575712764
-0.319576709572535 0.8943968444269101 -0.3129297227461409
-0.337574601692064 0.9255157068157209 -0.1716509968798318
-0.3565006432061461 0.9329075335924054 -0.05090014892059036
-0.3756996150727051 0.9253786975799881 0.05024007662599198
-0.3954729188951093 0.9085199274977309 0.1348803609132888
-0.4162448107035439 0.8854477108600481 0.2066944820140846
-0.4383634934885418 0.857563725454574 0.2691131813215257
-0.4620699235580867 0.8251438775744792 0.3250061030878899
-0.4874906293366753 0.787730604099788 0.3766077291738906
-0.5146156516346155 0.7443734087382603 0.4255337348037899
-0.5432530833537998 0.6937807834168886 0.4728047292361158
-0.5729601028617741 0.6344458149585445 0.5188402725408012
-0.6029565002961828 0.5648042919380826 0.5634177584695922
-0.6320392080042803 0.4834783813142965 0.6056195954120286
-0.6585379254435977 0.3896396350196524 0.643823543817865
-0.68037680879875 0.2834738816911435 0.6758179906215757
-0.6953142290036836 0.1666360072000491 0.69912127992891
-0.7013853832236767 0.04247101466988436 0.7115158164883515
-0.6974475800256452 -0.08425507409076169 0.7116656206438041
-0.683581895835474 -0.2081950014798936 0.699550307729734
-0.661102916015408 -0.3245395287800081 0.6764739674925961
-0.6321662769090349 -0.4298857135366453 0.6446425921672084
-0.5992104146321666 -0.5225406793113642 0.6065460555152957
-0.5644867869987396 -0.6023201963688805 0.5644156698303053
-0.5297954070356767 -0.6700936526790365 0.5198954926936447
-0.4964110555602074 -0.7273067146994305 0.4739208865103129
-0.4651277320158358 -0.7756037136330471 0.4267259920703573
-0.4363497312798608 -0.8165737321578957 0.3778971446858492
-0.4101812950553528 -0.8515891197035123 0.3264158029098926
-0.3864897545343188 -0.8816833342834677 0.2706661554143561
-0.3649318793286645 -0.907408010137306 0.208411675748512
-0.3449429991936087 -0.9286045911543895 0.1367766083594205
-0.3257046473041574 -0.9440231615205944 0.05231398701241884
-0.3061554168332122 -0.9507355954750972 -0.04868971390646826
-0.2852584910749396 -0.9433541333794502 -0.1694419437611429
-0.2631711020978663 -0.9132064895017931 -0.3111187531352056
-0.2450540627832419 -0.8478284671188652 -0.4702503552963057
0 0 0
0 0 0
-0.2576385799134103 0.8680621784589063 -0.4243706121650963
-0.2701486421933774 0.9246244070632904 -0.2684947243130347
-0.2855731350114046 0.9492281225612714 -0.1319619486767346
-0.3014086553110829 0.9533571398045447 -0.01621685811931684
-0.3176273536367555 0.9447787215081889 0.08065997524834043
-0.3346110248708571 0.9283045589322866 0.1621299105668259
-0.3527192102594808 0.9065292237923374 0.2319351744009293
-0.3722300947687771 0.8805216260764345 0.2934730354907211
-0.3933491206965177 0.850339111275227 0.3495709728838087
-0.4162105752092214 0.815353922904705 0.4024509131408662
-0.4408557906698625 0.774439602644775 0.4537504530997769
-0.4671843284892476 0.7260777553637107 0.5045293810870142
-0.4948761563298462 0.6684465657115276 0.5552267813107195
-0.5232859183324072 0.599556311813782 0.6055609602998392
-0.551322328126238 0.5175030217606515 0.6543961437677172
-0.5773521207721234 0.4209036265362682 0.6996461004025881
-0.5992074139850663 0.3095229711848335 0.7383400336797683
-0.6144057591962176 0.1849703595846339 0.7670016487215983
-0.6206575672120787 0.0511436272158997 0.7824119846075881
-0.6165712959521022 -0.08602497694440334 0.7825851649179529
-0.6022157500414063 -0.2197423311676007 0.7674956014825715
-0.5791397010949069 -0.3440105198212299 0.7390899599291201
-0.5498311978049145 -0.4548424667756157 0.7005740391549524
-0.5169950145898833 -0.5505647131108926 0.6554347042736799
-0.4830040693744452 -0.6313982733517748 0.6066657146865337
-0.4496432407505418 -0.6987596245765306 0.5563775185150956
-0.4180860628303315 -0.754616679393149 0.505724936352449
-0.3889930358407999 -0.8010354435686957 0.455001798033876
-0.3626426148654871 -0.8399141839472509 0.4037753056933338
-0.3390451534936414 -0.8728435087082838 0.3509880242946825
-0.3180191592918103 -0.9010202639698853 0.2950022003968233
-0.2992242316458049 -0.9251481262426312 0.2335932441354528
-0.2821515103916655 -0.9452611580669298 0.163926411031499
-0.2660805359293012 -0.9604063936828188 0.08258757396084376
-0.250039591211543 -0.968131457158062 -0.01420156638442035
-0.2329041461446101 -0.9637744960870533 -0.1299783805130525
-0.2141022151165281 -0.9396582726991385 -0.2668381007844769
-0.1966841431300163 -0.8841248085325528 -0.423838024224452
0 0 0
-0.0896189469846638 0.8269303061787009 -0.5551168463166645
-0.1762530025244076 0.9045772959199437 -0.3881685134156204
-0.2089176149677631 0.9493195526989185 -0.2348314651398019
-0.2274888556252487 0.9684346527093636 -0.101897713409126
-0.2421441438622529 0.9701869450065275 0.01017375703056261
-0.2559927597449669 0.9610744307507978 0.1039405864673897
-0.2701962984586138 0.9452254431541406 0.183146995370717
-0.2852896916348558 0.9248238430739889 0.2516160788358847
-0.3015775554080814 0.9006885341439588 0.312747729864969