# OOMMF: rectangular mesh v1.0
# Segment count: 1
# Begin: Segment
# Begin: Header
# Title: 
# Desc: time = 7.999999999999999e-10
# Desc: stepsize = 8.961070473623713e-14
# Desc: step = 5118
# meshunit: m
# valueunit: (none)
# valuemultiplier: 384000.0000000001
# xmin: 0
# ymin: 0
# zmin: 0
# xmax: 9.357999999999999e-08
# ymax: 9.357999999999999e-08
# zmax: 2.3395e-08
# ValueRangeMaxMag: 1
# ValueRangeMinMag: 0
# meshtype: rectangular
# xbase: 1.16975e-09
# ybase: 1.16975e-09
# zbase: 1.16975e-09
# xstepsize: 2.3395e-09
# ystepsize: 2.3395e-09
# zstepsize: 2.3395e-09
# xnodes: 40
# ynodes: 40
# znodes: 10
# End: Header
# Begin: Data Text
0 0 0
0 0 0
0 0 0
0 0 0
0 0 0
0 0 0
0 0 0
0 0 0
0 0 0
0 0 0
0 0 0
0 0 0
0 0 0
0 0 0
0 0 0
0 0 0
-0.836639387654472 0.02106613860616196 -0.5473488401644563
-0.8461829183950104 0.03964583701063776 -0.5314157282431795
-0.8563127176266944 0.02049221109865508 -0.5160509654240291
-0.8614115157617418 -0.01432285869573989 -0.5077056787468894
-0.8597265567401654 -0.05360935158358544 -0.5079333470628661
-0.8513616999259043 -0.0887222750969863 -0.5170218697510661
-0.8383458840319776 -0.108365069551603 -0.5342594785567381
-0.8268700959308937 -0.08981796276412138 -0.5551743672218097
0 0 0
0 0 0
0 0 0
0 0 0
0 0 0
0 0 0
0 0 0
0 0 0
0 0 0
0 0 0
0 0 0
0 0 0
0 0 0
0 0 0
0 0 0
0 0 0
0 0 0
0 0 0
0 0 0
0 0 0
0 0 0
0 0 0
0 0 0
0 0 0
0 0 0
0 0 0
0 0 0
0 0 0
-0.7830021996397323 0.2322376714185172 -0.5770383170409441
-0.8107407606643123 0.261764072387656 -0.5236210360599369
-0.8474590617051309 0.2443694036892909 -0.4712714008662088
-0.8837504620561234 0.196067368156154 -0.4249031748056336
-0.9153928220386323 0.1141609444126336 -0.3860353094355021
-0.9282726918379512 0.07340960517870689 -0.3645831036340411
-0.9361830094496832 0.03440551106744129 -0.349825147217752
-0.9396103062618011 -0.008470483961275204 -0.3421413790643651
-0.9380488117721818 -0.05312452480794464 -0.3424065005176257
-0.9315375346129271 -0.09617065460785237 -0.3506979138796893
-0.9206105358181107 -0.1354733257661551 -0.3662283704828825
-0.9045146578687611 -0.1764584001280413 -0.3882211569773209
-0.8679695304077644 -0.2578443099881775 -0.4244351612324845
-0.8272200810636657 -0.3070280482528674 -0.4705748772204655
-0.7867255205356019 -0.3257239785348234 -0.5243728112187275
-0.7564824641341958 -0.2973412232500355 -0.5825139298022209
0 0 0
0 0 0
0 0 0
0 0 0
0 0 0
0 0 0
0 0 0
0 0 0
0 0 0
0 0 0
0 0 0
0 0 0
0 0 0
0 0 0
0 0 0
0 0 0
0 0 0
0 0 0
0 0 0
0 0 0
0 0 0
0 0 0
-0.7567253618226089 0.3266399499127248 -0.5662800278090813
-0.7943423045501107 0.3548644717621883 -0.4930431115865648
-0.8493501498715239 0.3174076079023511 -0.4217306407636593
-0.8831728859574435 0.2959652322760401 -0.363882171579468
-0.9130312263634361 0.2625182385020325 -0.3121828857241689
-0.9394778756979166 0.2135154595437388 -0.2679411681880097
-0.9602890732951663 0.1522720839924792 -0.2337907358012658
-0.9722507975636129 0.0987130772789815 -0.2120945897731284
-0.9789373305047258 0.04802676279704385 -0.1984316834568441
-0.9814507746472653 -0.002808812947161589 -0.191693733632871
-0.9799266323812577 -0.05400402983154379 -0.1919045593827317
-0.9743621618137824 -0.1048509408205004 -0.1990594329204916
-0.9645711462996214 -0.1555594828569797 -0.2130815595482224
-0.9492598857594483 -0.2091284579864823 -0.2348849874899508
-0.9245419560896793 -0.2703578191079866 -0.2685680939297184
-0.8942917547195837 -0.3197806900379923 -0.3130216729228073
-0.8609069953360686 -0.3539326806447856 -0.3654733956843065
-0.823734100914414 -0.3762220723917847 -0.4241686966714448
-0.7646710959374811 -0.4139560633336936 -0.4938810511317899
-0.724118813892898 -0.3872082080516394 -0.5707203754762746
0 0 0
0 0 0
0 0 0
0 0 0
0 0 0
0 0 0
0 0 0
0 0 0
0 0 0
0 0 0
0 0 0
0 0 0
0 0 0
0 0 0
0 0 0
0 0 0
0 0 0
0 0 0
0 0 0
-0.7608995029154938 0.4075221292949103 -0.5049333229228353
-0.8119732281122424 0.4069631598830763 -0.4184261742852202
-0.8516720557827566 0.3967508758120581 -0.3424083117290482
-0.8895718636069323 0.3650792253751574 -0.2745524698092582
-0.9189433812201552 0.3284938779289265 -0.2182540590112435
-0.9433493770529672 0.2846379909350757 -0.1705085538330021
-0.9637602585013505 0.2323450984195101 -0.131079820620252
-0.9795742020496844 0.1738387202586312 -0.1010667206233814
-0.9900060847647509 0.1155468783248088 -0.08085091859811908
-0.9959618590032613 0.05819578819428545 -0.06836099507184537
-0.9980512976657544 0.001158933934173729 -0.06238801246905586
-0.9964798253661786 -0.05581680458627579 -0.06254951609698399
-0.9912405523146381 -0.1127140800745366 -0.06883097849021973
-0.98209714578361 -0.169794994756911 -0.0815773007593804
-0.9683780153419458 -0.2277061279243572 -0.1019506680119834
-0.9491528860846594 -0.2857881765821566 -0.1320375589103604
-0.9254213989610747 -0.3377840613668834 -0.1717473791107752
-0.8978175764206358 -0.3815319090965243 -0.2199022551301754
-0.8652145330772538 -0.4182818477837555 -0.2764852754967538
-0.8237608892854485 -0.4504695951992937 -0.3442312320005709
-0.7806099715665769 -0.4617946919546205 -0.4211813561559494
-0.7261657458792355 -0.4626660602804408 -0.5085503182343202
0 0 0
0 0 0
0 0 0
0 0 0
0 0 0
0 0 0
0 0 0
0 0 0
0 0 0
0 0 0
0 0 0
0 0 0
0 0 0
0 0 0
0 0 0
0 0 0
-0.6565112490861029 0.4976491697063787 -0.5668670776416252
-0.7079055314641093 0.5330047195945841 -0.4634390223237734
-0.7878662111489732 0.4978185024555123 -0.362551474886963
-0.837351154698344 0.470755742816706 -0.277906592815717
-0.8739406891835161 0.440361860773974 -0.2056917678593957
-0.9046224916010031 0.401219437891337 -0.1438092846368141
-0.9298485309548267 0.356164886809478 -0.09234870267167704
-0.9508731848546216 0.3055594315059116 -0.04973550182930132
-0.9682542305848333 0.2494999426864329 -0.01528147748219277
-0.9818549965821769 0.1893176489401828 0.01093588068580422
-0.9913951245711903 0.1276179457332656 0.0291438999328259
-0.9970230444819494 0.06562821077880031 0.04047204864986882
-0.9989415064173749 0.003648644842239354 0.045853616513861
-0.9972549941652629 -0.05823879974203262 0.04572437880439856
-0.9919696351898069 -0.1199537347122481 0.0400916997642214
-0.9829912621030554 -0.1814221473631822 0.02853389344574858
-0.9701313911878712 -0.2423687082239204 0.01012388787735709
-0.95328564136246 -0.3016307454603242 -0.01629046853874504
-0.9328196612003741 -0.3567168934900384 -0.05099546623804081
-0.9088567929977144 -0.4064103093490195 -0.09386154844633425
-0.8807128582572412 -0.4507591438176777 -0.1454684005724748
-0.846946722897015 -0.4895799692550047 -0.207346816417023
-0.8070037120718021 -0.520172046579312 -0.2795819211963134
-0.7535202493126625 -0.5476975243924234 -0.3636408333097281
-0.6684276506290511 -0.5831670385706926 -0.4616499550516763
-0.6130194358779215 -0.5497556370044747 -0.5674292121645825
0 0 0
0 0 0
0 0 0
0 0 0
0 0 0
0 0 0
0 0 0
0 0 0
0 0 0
0 0 0
0 0 0
0 0 0
0 0 0
-0.6353829041888533 0.5440097313082788 -0.5480346497315954
-0.6985255558702566 0.5674727790297632 -0.4359319819150527
-0.7498863267269188 0.5725464159913702 -0.3314530110339093
-0.8016406069685739 0.5493666202961982 -0.2357300442527185
-0.8422385396438854 0.5162370163263527 -0.155349880312152
-0.874575943664927 0.4767607816136474 -0.08840857355339315
-0.901682610818862 0.4311709113492962 -0.03255940037987685
-0.9246996715103766 0.38045617797361 0.01355042989405538
-0.9442793020733973 0.3251232251099607 0.05129803280706759
-0.9606427999175031 0.2655511843200416 0.08153514256369948
-0.9736559886275689 0.2025970840422271 0.104634780772253
-0.9830679195388321 0.137611617304286 0.1209979683981935
-0.9887473403931094 0.07163891168457329 0.1313261710330502
-0.9906586726562089 0.005292555758788294 0.1362621853067747
-0.9888054133235897 -0.06103929390224234 0.1361545415396774
-0.983210179402363 -0.1270259226471997 0.1310044201361168
-0.9739170816672786 -0.1922850623593223 0.1204656500009936
-0.9610172700221492 -0.2562252208950166 0.1038963083871353
-0.9447072688951783 -0.3178571864290354 0.08059147059106277
-0.925292743035129 -0.3759233528562829 0.05014950113228297
-0.9028964682922521 -0.4296840127089217 0.01223179331645896
-0.8772079578265695 -0.4789078033760896 -0.03396343020408302
-0.8474242711717355 -0.5232683868689223 -0.08979031090629046
-0.8122074359667351 -0.5619555330138326 -0.1566047888012388
-0.7682184779573479 -0.5948583977644407 -0.236609079990642
-0.7123368668785172 -0.6185320643720763 -0.3316538457930414
-0.6567204383189342 -0.6149453484209587 -0.4365323405540673
-0.5895653087094844 -0.5926421448419187 -0.5488060084615145
0 0 0
0 0 0
0 0 0
0 0 0
0 0 0
0 0 0
0 0 0
0 0 0
0 0 0
0 0 0
0 0 0
-0.5929666089810475 0.5895180204754402 -0.5485062480667247
-0.6615492949858904 0.6170196810843375 -0.4261915572348344
-0.7148800101209639 0.6249314306143604 -0.313699343575563
-0.7588910414182856 0.6153364402417046 -0.2131793905745493
-0.7984762181606034 0.5888864491350573 -0.1250938809736246
-0.8324293925603877 0.5517629894533437 -0.05117528574470519
-0.8615607244384026 0.5075567822952107 0.009961468330841954
-0.8870190349673651 0.4577613739347064 0.06042976202976157
-0.9094135189579483 0.4032095387955777 0.1019270295887126
-0.9289629725614883 0.3443670327309227 0.1357908037306733
-0.9455957794532202 0.2816245237373196 0.1628995073963829
-0.95903493653087 0.2156027121913052 0.1837592474107977
-0.9689290155863701 0.1471949519740503 0.1987717506794765
-0.9749851788855597 0.07729891416799836 0.2083957264963483
-0.9770197526029405 0.006673187446381083 0.2130442949083447
-0.9749613858000855 -0.06403976790395263 0.2129535262107292
-0.9688475750792768 -0.1342375977077219 0.2081217038769965
-0.9588267614325346 -0.2032829801599429 0.1983110474433752
-0.9451636120958671 -0.2704370229119899 0.1831107943524693
-0.928229364034748 -0.3348490024816074 0.162069100326741
-0.9084314254981677 -0.3957044915404836 0.1347972571755581
-0.8860534780545872 -0.4524886943386911 0.1008127746024045
-0.8611147974530663 -0.5049447319137983 0.0592631700119573
-0.8332855730724338 -0.5527723499019969 0.008825128507243176
-0.8017828249412287 -0.5953318525194611 -0.05219470284433686
-0.7652113075601771 -0.6313490858097128 -0.1258967300182305
-0.7225166803845119 -0.6574886897363199 -0.2137247515730493
-0.6748248805674019 -0.6677558183347567 -0.3141871220264612
-0.6171286836770981 -0.6612486080534629 -0.4265002533766298
-0.5441181663889993 -0.6350536669291155 -0.5483085455520063
0 0 0
0 0 0
0 0 0
0 0 0
0 0 0
0 0 0
0 0 0
0 0 0
0 0 0
-0.5500685697375763 0.6130343688361448 -0.567109717085262
-0.61523651144646 0.6566706106290844 -0.4361969098001666
-0.6680288015610579 0.6747110621832313 -0.3138510838797153
-0.7114636021053844 0.6720980420662347 -0.205192019167327
-0.7485822371107872 0.6536706931888095 -0.1110822179661066
-0.78188886382596 0.622658829015081 -0.03075365465301974
-0.812032766730401 0.582471402195593 0.03646712739535653
-0.8394743593424252 0.535524841466278 0.09217344617156219
-0.864568746948244 0.4831254410485148 0.1382414193070227
-0.8874127951749405 0.4259440179195339 0.176267480149805
-0.9078598472463868 0.3643542691357599 0.2074523181849572
-0.9255731781865945 0.2986934987605535 0.2325865121191366
-0.9400910431826317 0.2294650522756124 0.2521400807327965
-0.9509163049626312 0.1573979149085638 0.2664283718725387
-0.9576146983196757 0.0833531485928564 0.2757287474707217
-0.9598847255103908 0.008223331158533067 0.280274313051514
-0.957593467735054 -0.06710758755819965 0.2801987192034821
-0.9507908984317052 -0.1417631542516576 0.2754993204275666
-0.9397105519264507 -0.2148648732836302 0.2660397805345933
-0.9247538924083795 -0.2855388291136099 0.2515905712541293
-0.9064463199093838 -0.3529654986309074 0.2318845098297194
-0.8853522018949691 -0.4164842947191125 0.2066211771625856
-0.861960999776938 -0.4756850526480195 0.1753481267387579
-0.8365893370628826 -0.5303485386962665 0.137290599151655
-0.8093106713364692 -0.5802486095545916 0.09125671685347871
-0.779892688049727 -0.6248971451636478 0.03565042907025464
-0.7477719860802921 -0.6632120850644672 -0.03141316695235855
-0.7122170101527274 -0.6930375175404342 -0.1115613272173729
-0.6722729087065877 -0.7112045652573773 -0.2055169155477181
-0.6251010516243523 -0.7145986702576365 -0.3140022543297198
-0.5676393859598904 -0.6982192607260751 -0.4362056756373202
-0.49781826912164 -0.6561787039187428 -0.5671035879380879
0 0 0
0 0 0
0 0 0
0 0 0
0 0 0
0 0 0
0 0 0
0 0 0
-0.5834384226217406 0.6684381834705975 -0.4612916668304148
-0.6187913432830874 0.7122803558613583 -0.3312913644089268
-0.6577365008826177 0.7223964244781547 -0.2133684637144569
-0.6932775811409828 0.7120367307697424 -0.1112200050442582
-0.7254634415240871 0.6878283249450863 -0.0243924253665674
-0.7554132384994792 0.653427255777169 0.04882274579790132
-0.7837569479016826 0.6112208059286537 0.110155222371731
-0.8107357366887633 0.562724579539711 0.1613958265804385
-0.8363304337737133 0.5087669066402571 0.2042244849462861
-0.8603021052275392 0.4497520757247644 0.2400069959862187
-0.8822262699621318 0.385905752545202 0.2697286761566604
-0.9015344437743086 0.317480532494737 0.2940097926522266
-0.9175691188628745 0.2449112431553705 0.3131858794474908
-0.9296610767979084 0.1688834291357369 0.3274273501867355
-0.9372218473799451 0.09030683035825857 0.3368380696779489
-0.9398286671287789 0.01024543420042623 0.3414924706651484
-0.9372850962589373 -0.07015175789467901 0.341431368206204
-0.9296517802012543 -0.1497099774552695 0.3366518828389062
-0.9172457845165962 -0.2272862912099838 0.3271102453524558
-0.900606431826971 -0.30183505161911 0.3127357615719382
-0.8804266508475896 -0.3724846268455953 0.293435027290529
-0.857456547076367 -0.43861070060611 0.2690518968334749
-0.8324002499136954 -0.4998618523792002 0.2392654435551684
-0.8058312470829757 -0.5560908918093924 0.2034672486454027
-0.7781303462097596 -0.6072031039549359 0.1606784206263247
-0.7494330702367814 -0.652956903938348 0.1095324373631739
-0.719580397084693 -0.6927245654576875 0.0483397201366827
-0.6880656484538032 -0.7252275251748841 -0.02471234805839926
-0.6539034532578255 -0.7483335324128938 -0.1113876029185056
-0.6155639039127233 -0.7586259197521671 -0.213466142701613
-0.5727692695991274 -0.749600495847033 -0.3317144260184708
-0.5332255164247599 -0.7075928104206062 -0.4636625532373904
0 0 0
0 0 0
0 0 0
0 0 0
0 0 0
0 0 0
0 0 0
-0.4629455035406947 0.7262350854768596 -0.5081968726525873
-0.5479467755687296 0.7535216059146763 -0.3632623302292695
-0.5950929124445548 0.7681539214532813 -0.2362286572670695
-0.6315760401803377 0.7650849226930686 -0.1255259596173826
-0.6634367013153538 0.7475874969488961 -0.03105926195976978
-0.6929507383786508 0.719340207147494 0.04867176349262239
-0.7213212568355428 0.6828462383590852 0.115830303444476
-0.7491013423467507 0.6396025574277755 0.1724985432580374
-0.7763971126338998 0.5904144971939882 0.2204954534608665
-0.8030048024316728 0.5356297954693784 0.2613120920988953
-0.828488368297382 0.4753441712027344 0.2960657739414105
-0.8522259350889003 0.4095885846734076 0.3254967693650483
-0.8734508139367592 0.3384964655372253 0.3500054548889459
-0.8913062394724458 0.2624395860443234 0.3697278068449416
-0.904926130949127 0.1821077468504823 0.3846367975928502
-0.9135393039346033 0.09851655817803232 0.3946396177925302
-0.9165785492505991 0.01295395641608568 0.3996447898657462
-0.9137703277076031 -0.07311368054620518 0.3995975199098792
-0.9051848451632287 -0.1581591829220715 0.3944947007809402
-0.8912344242128341 -0.2407224152729217 0.3843877207757664
-0.8726186850173664 -0.3195331968971969 0.3693713126911978
-0.850227015387902 -0.3936115632500948 0.3495482221101919
-0.8250198897008281 -0.4623243513535399 0.3249590370239939
-0.7979160302641027 -0.525376845175374 0.2954812670900575
-0.7697049800262404 -0.5827320899824492 0.2607250563860152
-0.7409853801452139 -0.6344762874554239 0.2199556934199123
-0.7121134533796911 -0.6806551806097925 0.1720550918302058
-0.683141127371695 -0.7210910770236471 0.1155242776658025
-0.6537198044357421 -0.7551790048739943 0.04852924773802448
-0.6229471258197555 -0.7816481349265066 -0.03103339489676523
-0.5891694453749141 -0.798226071715321 -0.1253575010541554
-0.5496445718737647 -0.8013782728278396 -0.2359739571418291
-0.4980938029982859 -0.7875906535361038 -0.3627720026094584
-0.4078015168395177 -0.7606162159820838 -0.5051345314354223
0 0 0
0 0 0
0 0 0
0 0 0
0 0 0
-0.3874745548009175 0.7242540574924877 -0.5703678896883121
-0.4620371911744711 0.7806738621477319 -0.4207968095541467
-0.5203947629780958 0.8069975494323618 -0.2791849671367234
-0.5621677448046486 0.8121364305443094 -0.1562108987363016
-0.5955410637140559 0.8016522063003318 -0.05181294784260438
-0.6251090249644142 0.7797061317297012 0.03601465050704118
-0.6531754908665244 0.7491923535607659 0.1098753634685898
-0.6808829382828743 0.711818718515135 0.1723732471317687
-0.7087036314598752 0.6684127111752339 0.2257512132746086
-0.7366682603411335 0.6192331861596412 0.2717906094120006
-0.7644880615766275 0.5642066547325411 0.3118154172941501
-0.7916211682738181 0.5031127770172186 0.3467181269313983
-0.8173111653829627 0.4357485193831153 0.3769956058043189
-0.840622911162125 0.3620837784862386 0.4028007678573142
-0.8604982210218077 0.2824023905048287 0.424018515463018
-0.875847382811618 0.1974055952084958 0.4403662032926889
-0.8856777109702725 0.1082508749012976 0.4515049727008124
-0.8892405138202325 0.01650966786559108 0.4571419248413954
-0.8861622172097284 -0.07595622143668777 0.457107402275437
-0.8765217777630621 -0.1671812426931984 0.4513978347296744
-0.860848525794668 -0.2553088536444352 0.4401786056680976
-0.8400391755291169 -0.3387834067041921 0.4237451910267098
-0.8152186588538087 -0.4164802333198184 0.4024459634664836
-0.7875839147663769 -0.4877513494449433 0.3765769487314704
-0.7582672342451162 -0.5523859883894143 0.3462665466101384
-0.7282385938246813 -0.6105047387880809 0.3113719871496909
-0.6982441898684058 -0.6624169933623592 0.2714015074014616
-0.6687623883025099 -0.7084658159450389 0.2254618717860124
-0.6399521165741804 -0.748866209547919 0.1722227879508346
-0.6115676217273017 -0.7835232109339532 0.1098927749333824
-0.5828134889903017 -0.8117984169877954 0.03621832722614091
-0.5520992434633087 -0.8321919907860263 -0.05140929720227415
-0.5165675886580658 -0.8419957164275732 -0.1555671554847241
-0.4710826355843281 -0.8371014377602106 -0.2781048963084085
-0.4072909528941416 -0.8117169305213792 -0.418604472498243
-0.3269754854129482 -0.7564623545005896 -0.566437761949528
0 0 0
0 0 0
0 0 0
0 0 0
-0.4141759510349704 0.7648016893213787 -0.4934943339040909
-0.4506767113521851 0.8238174658948936 -0.3438244969912615
-0.4897759800293583 0.8469339195413127 -0.2069357999879922
-0.5234597588825511 0.8473487880985343 -0.08938630845138358
-0.5529656825558902 0.8331530631645012 0.009215598467066511
-0.580449328066195 0.8091245473488686 0.09162993192723937
-0.6074152016160055 0.7778917493347093 0.1610316713034188
-0.6347022829914815 0.7406936372594262 0.2202860587708675
-0.6626578887194313 0.6978974590711409 0.2717050959035378
-0.691262168534545 0.6493507251420892 0.3170177441569483
-0.7201961197375603 0.5946197352848173 0.3574142128186498
-0.7488727499072103 0.5331686194144781 0.3935998319588966
-0.7764513412901757 0.4645209913397088 0.4258445293924305
-0.8018572898745415 0.3884263179882892 0.4540373136308459
-0.8238323706504839 0.3050298387096116 0.4777625169110604
-0.8410370639156073 0.2150209004037431 0.4964097798289006
-0.8522119855776081 0.1197169468504025 0.5093158001423947
-0.8563789907315187 0.02103796594550011 0.5159190132400052
-0.8530330158670177 -0.07865420545406145 0.51589552217984
-0.8422607242867628 -0.1768345327764945 0.5092410238204066
-0.8247383670652104 -0.2711435058837901 0.4962739415964298
-0.8016073852398866 -0.359672265725791 0.4775578092718694
-0.7742738464200449 -0.4411314251859733 0.4537654421210371
-0.7441971712006289 -0.5148811047190377 0.4255208789005361
-0.7127199359606525 -0.580846070788833 0.3932532707218295
-0.6809596992640851 -0.639363167266779 0.357083503288459
-0.6497547217681668 -0.691006969839921 0.3167462220336996
-0.6196390956515334 -0.7364211089433683 0.271535156918526
-0.5908190293296692 -0.77615763381906 0.2202548570323582
-0.5631250125276497 -0.81050273967445 0.1611692565160752
-0.5359191857964064 -0.8392460130942558 0.09196062092391633
-0.5079439807944501 -0.8613347784497591 0.009762776633269464
-0.4771409741553002 -0.8743500145177935 -0.08859200243173676
-0.4407367002391012 -0.8737125515921716 -0.2058580536501907
-0.3971236667316149 -0.8514395020166936 -0.3425544741018592
-0.3552394541078926 -0.7941009739099868 -0.4931618126744367
0 0 0
0 0 0
0 0 0
-0.2975555367591848 0.7566798071110701 -0.582148067122366
-0.3764122044610923 0.8238564407674559 -0.4237622179226454
-0.4184593171187314 0.8652632074395451 -0.2760640899645493
-0.4509305847558215 0.8806944770499517 -0.1450477363680115
-0.4790797335040842 0.8771299024575698 -0.03355209621512786
-0.5051232144239075 0.8609826616564168 0.05966066188947961
-0.5305386666452676 0.8364061040022847 0.1376719012071092
-0.5562965817896209 0.8055974371706524 0.2038305235072992
-0.5829559937433845 0.7694191802802675 0.2610678731201974
-0.6107481407590173 0.7278981164663586 0.3116906168047573
-0.6396258319913252 0.6805613032859026 0.357372505264742
-0.6692781048931024 0.6266596467178172 0.3992048415114694
-0.6991205086944707 0.5653387219994586 0.4377472372623297
-0.7282756986624808 0.4958049398727203 0.4730665580396514
-0.7555656988562716 0.4175165870120464 0.5047775493042909
-0.7795451455656094 0.3304041731787803 0.5321113120120062
-0.7986072837258205 0.2350916144252688 0.5540382109629145
-0.8111814943316503 0.1330543920726742 0.569456857017317
-0.8160054487723476 0.02662973959996299 0.5774304845976499
-0.8124037845358457 -0.08118699478572797 0.5774155892851321
-0.8004689672440318 -0.187150054568833 0.5694069630362411
-0.7810600869052519 -0.2882606088629819 0.5539412983534469
-0.7556171750772032 -0.3821837592369232 0.5319570085109137
-0.7258727595782103 -0.4674638446464018 0.5045654475394818
-0.6935671452023364 -0.54352076781734 0.4728105223523795
-0.660240135311108 -0.6104906253157083 0.4374747537012902
-0.6271189527277113 -0.6689981138337161 0.3989528077562915
-0.5950829230465563 -0.7199289013207395 0.3571815949086383
-0.5646696988079437 -0.7642339255441938 0.3116001256345336
-0.536089243947565 -0.8027631332643844 0.2611123788625801
-0.5092200094724647 -0.8360998947839445 0.2040390842342195
-0.4835702805842804 -0.8643474751610497 0.1380696415522198
-0.4581970204594067 -0.8868048425074189 0.0602715666588601
-0.4315976308741016 -0.9014732247678776 -0.03270336451293201
-0.4016389369386811 -0.9044158901539482 -0.1439377017039208
-0.3654949228976483 -0.8893668234914853 -0.2746636390363796
-0.3178252054473072 -0.8491475416889099 -0.4218241235705439
-0.2326677185029215 -0.7828101788200126 -0.5771255987239038
0 0 0
0 0 0
-0.3258895976166972 0.7869183714043907 -0.5239803879073032
-0.3540885719260484 0.8610217110901617 -0.3650519089975303
-0.3816814186162034 0.8978593847778247 -0.2194716834799142
-0.406558905630971 0.9088343141822923 -0.09343471312605833
-0.4298375766202776 0.9028176340000198 0.01264821978827175
-0.4526527504867829 0.8859237152768418 0.1012158988836584
-0.4758643918647785 0.8617828531216281 0.1757367196140584
-0.5000603672184913 0.8321736932576519 0.239638422184812
-0.5255974190605963 0.7976390230352076 0.2958366813096011
-0.5526303465301452 0.7579363466211012 0.3466009154122777
-0.5811145616914918 0.7123310297637968 0.3935611391204084
-0.6107819487628877 0.6597891419713869 0.4377484428322614
-0.6410957120924621 0.5991312194231324 0.4796228412505065
-0.6711950665206604 0.529199792466987 0.5190806896150381
-0.6998506898848611 0.4490796864323826 0.5554605720494266
-0.7254664062031563 0.3583856897339839 0.5875867517776188
-0.746174232910595 0.2575892421752108 0.6138988487168592
-0.760062759214715 0.1482950279081036 0.6327030794556388
-0.7655340183414947 0.03332424561670716 0.6425318368890376
-0.7617003418801281 -0.0835314001102342 0.6425224465925834
-0.7486565913197373 -0.1980997598813162 0.6326687864977029
-0.7274814437158411 -0.3065761093095234 0.6138255764056676
-0.6999633269441187 -0.4061274604115879 0.5874621918327633
-0.6681922966708254 -0.4951561477510929 0.5552832106358563
-0.6341861547128436 -0.5732261487254962 0.5188638584328954
-0.599647361751208 -0.6407847755645688 0.479393275870115
-0.5658607796426661 -0.6988269750455204 0.4375413546293891
-0.5336917284504352 -0.7485975167061335 0.3934144086901193
-0.5036327086497377 -0.7913639748701593 0.3465503629428625
-0.4758574396865058 -0.8282481088397433 0.295913445619477
-0.4502560199353824 -0.8600770937325807 0.2398685251308841
-0.4264368833834787 -0.8872009877913597 0.1761419647676849
-0.4036905951198905 -0.9092127155824541 0.1018142486832134
-0.3809258704888012 -0.9245077372277898 0.01345083634204383
-0.3566250165108019 -0.9296636735029622 -0.09243404009155505
-0.3289477745234908 -0.9187644701514105 -0.2183236359706387
-0.2964178898042167 -0.8829995430086666 -0.3639343919589084
-0.2622217540791474 -0.8105719057569668 -0.5236534515165286
0 0 0
0 0 0
-0.3071579133121025 0.8274043644141755 -0.4701659643552777
-0.319906580637473 0.8943976736226377 -0.3125901167395618
-0.3379084434371948 0.9254568473995571 -0.1713111422386888
-0.3568444820494783 0.9327942917261031 -0.05056505665018638
-0.3760594352450292 0.9252145972913731 0.05056926064469654
-0.3958541534233233 0.9083056479840724 0.1352048041222547
-0.4166521162975715 0.885180938870995 0.2070162299053335
-0.4388006294926385 0.8572393420157568 0.2694340699637964
-0.4625395926375575 0.8247542194402495 0.325326916744044
-0.4879941958113532 0.7872657548219085 0.3769274414779593
-0.5151526774497049 0.7438216010946108 0.4258487344837944
-0.5438206743882056 0.6931290722810705 0.4731079826707
-0.5735520980924247 0.6336812384730921 0.5191204858036187
-0.6035626481884085 0.5639157590732639 0.5636587144546061
-0.6326446073105452 0.4824594452214018 0.6058000367757851
-0.6591232054227919 0.3884920296604494 0.6439181182134013
-0.6809196069283016 0.2822111331662696 0.6757997966984133
-0.6957923391663116 0.165285686547768 0.6989661383643023
-0.7017811928231799 0.04107377211270376 0.7112074961951034
-0.6977523009214343 -0.08565081389471602 0.7112001579288463
-0.683797452325572 -0.209541536915626 0.6989373280202551
-0.6612404163547961 -0.3257980663013544 0.6757342168140025
-0.6322421247769706 -0.4310309594153559 0.6438029261217897
-0.5992421197021338 -0.5235610773253854 0.6056341142016148
-0.5644899090763645 -0.6032151834603994 0.5634559299482026
-0.5297820284819837 -0.6708698276044197 0.5189071946962482
-0.4963894454808028 -0.7279742739357822 0.472917513846687
-0.4651026979620512 -0.7761737187104691 0.4257156782778641
-0.4363232070746613 -0.8170562335199654 0.376883496898245
-0.410152920681784 -0.85199189362949 0.3253988242846576
-0.3864573090210285 -0.8820109445738054 0.2696431752450787
-0.3648915661039512 -0.9076609320624416 0.2073783435987104
-0.344889612747155 -0.9287782394380474 0.1357281730720553
-0.3256317672574789 -0.9441068135239978 0.05124721270794715
-0.3060558691420593 -0.9507115240195612 -0.04977351765850067
-0.2851255932870096 -0.9431978002188764 -0.1705324183696535
-0.2630015868484888 -0.9128893728831204 -0.3121909002393236
-0.2448542330028766 -0.8473253570503761 -0.4712601658108022
0 0 0
0 0 0
-0.2579493372636691 0.8681437152053635 -0.4240148926095189
-0.2704597983389551 0.9246392633889978 -0.2681300618765124
-0.2858908683186034 0.949182982305526 -0.1315981668322997
-0.3017391827950727 0.9532586120756492 -0.01585824926554439
-0.3179764970595312 0.9446310398523531 0.08101324499865128
-0.3349840381497678 0.9281088006238705 0.1624799938127615
-0.3531207350552639 0.9062832806201798 0.2322850872147279
-0.3726641245086669 0.8802204059934385 0.29382560674137
-0.3938188930429697 0.8499747415235082 0.3499280186759195
-0.4167183181984503 0.814915925018333 0.4028124606182993
-0.441402275681241 0.773915129491719 0.4541138660812248
-0.467768182691978 0.7254520738767443 0.5048883200956171
-0.4954929413143895 0.6677040624649545 0.5555700046577481
-0.52392705126669 0.5986823788844647 0.605871153104543
-0.5519741112757838 0.5164871721184644 0.6546492049322138
-0.5779953898254711 0.4197439232639496 0.6998116662527774
-0.5998185940415899 0.308231132478395 0.738384197564558
-0.6149600565272377 0.1835756910125153 0.7668924921690742
-0.621134235180132 0.04969286377762083 0.7821271515404452
-0.6169591945460461 -0.08747424363078607 0.7821186668059491
-0.6025160742140526 -0.2211334123489214 0.7668600877973814
-0.5793640398293831 -0.3452989337021578 0.7383129118041545
-0.5499966203912501 -0.4560015375103089 0.6996901566739644
-0.5171191296936545 -0.5515848483346165 0.6544783883311616
-0.4831018207311836 -0.6322825339315093 0.6056661028086056
-0.449725609833336 -0.6995184882828814 0.5553564264600399
-0.4181600891076804 -0.755263685693222 0.504696844601337
-0.3890624421320734 -0.801584208317593 0.4539748595440987
-0.3627085780604539 -0.8403765827774278 0.4027526368885693
-0.3391069565709273 -0.8732286191953532 0.3499689280827359
-0.3180746648888756 -0.9013336610560942 0.2939832291186802
-0.299270161350182 -0.9253912341969367 0.2325692030276267
-0.282183604258803 -0.9454304661823378 0.1628915194285996
-0.2660936654748702 -0.9604925070118564 0.08153713980896113
-0.2500280198789727 -0.9681182067797874 -0.01526849622221866
-0.2328622690298048 -0.9636388171623207 -0.1310549263488151
-0.214026560380057 -0.9393721824308799 -0.2679039647465608
-0.1965786755427568 -0.8836608418206062 -0.424853316986878
0 0 0
-0.08993733550102422 0.8271164081644993 -0.5547879982732438
-0.1765494089400655 0.904680682738506 -0.3877926875054551
-0.2092110140657614 0.949350999904916 -0.2344428087468482
-0.2277895350746177 0.9684047270857015 -0.1015096658873277
-0.2424592530549247 0.970104151622603 0.01055678041056615
-0.2563281190135597 0.9609440261827852 0.104319096749293
-0.2705569751358131 0.9450491305851924 0.1835240147379368
-0.2856802266099786 0.9245999311927384 0.2519955859979571
-0.3020020509862064 0.9004121821571012 0.3131336191200356