# OOMMF: rectangular mesh v1.0
# Segment count: 1
# Begin: Segment
# Begin: Header
# Title: 
# Desc: time = 1.8e-10
# Desc: stepsize = 1.3068513131497885e-13
# Desc: step = 1150
# meshunit: m
# valueunit: (none)
# valuemultiplier: 384000.0000000001
# xmin: 0
# ymin: 0
# zmin: 0
# xmax: 9.357999999999999e-08
# ymax: 9.357999999999999e-08
# zmax: 2.3395e-08
# ValueRangeMaxMag: 1
# ValueRangeMinMag: 0
# meshtype: rectangular
# xbase: 1.16975e-09
# ybase: 1.16975e-09
# zbase: 1.16975e-09
# xstepsize: 2.3395e-09
# ystepsize: 2.3395e-09
# zstepsize: 2.3395e-09
# xnodes: 40
# ynodes: 40
# znodes: 10
# End: Header
# Begin: Data Text
0 0 0
0 0 0
0 0 0
0 0 0
0 0 0
0 0 0
0 0 0
0 0 0
0 0 0
0 0 0
0 0 0
0 0 0
0 0 0
0 0 0
0 0 0
0 0 0
-0.8112036358229979 0.006939937476387821 -0.5847225825084679
-0.8207091713750938 0.03092985255290112 -0.5705083700015821
-0.8310369338797839 0.01639153951799209 -0.555975657704469
-0.8364598455698994 -0.01417676171198191 -0.54784481943023
-0.8351701418887312 -0.04936646464894111 -0.5477716552228866
-0.8272459722880188 -0.08035507764280921 -0.556063991668466
-0.8147039666110115 -0.09561532073292241 -0.5719398195871864
-0.8037143048321549 -0.07198749607855952 -0.5906446618877588
0 0 0
0 0 0
0 0 0
0 0 0
0 0 0
0 0 0
0 0 0
0 0 0
0 0 0
0 0 0
0 0 0
0 0 0
0 0 0
0 0 0
0 0 0
0 0 0
0 0 0
0 0 0
0 0 0
0 0 0
0 0 0
0 0 0
0 0 0
0 0 0
0 0 0
0 0 0
0 0 0
0 0 0
-0.7642275859098998 0.2057303272775168 -0.6112538174707882
-0.7919694307396448 0.2402159555704464 -0.5613205104602004
-0.8289686816933656 0.2269567770498775 -0.5111766290849915
-0.8657105435055938 0.1820716168499211 -0.4662565615633779
-0.8977624126950902 0.1027917675917098 -0.4283182261674863
-0.9107657188357005 0.06598315156620638 -0.4076175034307041
-0.9188930311662014 0.03104384882503607 -0.3932834559504352
-0.9226200874178357 -0.007856744943764682 -0.3856299338121887
-0.9214103314392512 -0.04862514576033854 -0.3855367638978082
-0.9152917387372105 -0.08783546393222101 -0.3930979067296399
-0.9048148798881305 -0.1233448748024128 -0.4075488620926383
-0.8892754849931175 -0.1607691444972264 -0.4281849996997616
-0.8533250883651862 -0.2399098118532182 -0.4629034194549659
-0.8129777323705339 -0.2862932981492743 -0.5070536008199475
-0.7728984585635902 -0.3015885674920393 -0.558276193929246
-0.7430901945593181 -0.2690228253125404 -0.6127345936134603
0 0 0
0 0 0
0 0 0
0 0 0
0 0 0
0 0 0
0 0 0
0 0 0
0 0 0
0 0 0
0 0 0
0 0 0
0 0 0
0 0 0
0 0 0
0 0 0
0 0 0
0 0 0
0 0 0
0 0 0
0 0 0
0 0 0
-0.7448743450496778 0.2950980976750718 -0.5983972951437591
-0.7825768166606519 0.327778045134886 -0.5292778846247334
-0.8378187773254738 0.2934799930854432 -0.4603576761817004
-0.8718789502480595 0.2758568879287413 -0.404635729387076
-0.9020739253884209 0.2461021880260276 -0.354536805117786
-0.9288807126945786 0.2004926311295474 -0.3114214611210382
-0.9499475381430966 0.1424518908901225 -0.2780416040050444
-0.9620192565608451 0.09247549434231135 -0.2568408708758468
-0.9688592316653747 0.04553926394437196 -0.2433885055958555
-0.9716172172925789 -0.001532723018203788 -0.2365536594956296
-0.970428441365403 -0.04902289257339729 -0.2363586177672626
-0.9652853165368537 -0.09626702029398661 -0.2428104579338844
-0.9559996862903288 -0.14354033109875 -0.2558530303921638
-0.9412540173098064 -0.193979135248672 -0.2764289601078866
-0.9170328401831718 -0.2525637590321052 -0.3086459422204628
-0.8871233298232439 -0.2992853772929522 -0.35134094640667
-0.8540393421269934 -0.3305476409820788 -0.4016902527327171
-0.8172407643666382 -0.3499010214278254 -0.4579157217886245
-0.7587970822643725 -0.3853481099739411 -0.5251036298547038
-0.7186786861030973 -0.3551239824007311 -0.5978192898066859
0 0 0
0 0 0
0 0 0
0 0 0
0 0 0
0 0 0
0 0 0
0 0 0
0 0 0
0 0 0
0 0 0
0 0 0
0 0 0
0 0 0
0 0 0
0 0 0
0 0 0
0 0 0
0 0 0
-0.755507391657202 0.3751639708840689 -0.5370852596206935
-0.806785332928545 0.3780498101777294 -0.454065818572549
-0.8467913882706836 0.3713868535587174 -0.3808098603691391
-0.8849657772265425 0.3429622366754957 -0.3149801221543386
-0.9145122927999513 0.3097161580518094 -0.2602751769942773
-0.9390632987775247 0.2692007194171893 -0.2137547509515062
-0.9595861964348178 0.22019863067096 -0.1752338285331703
-0.9754474324222505 0.1650039797837044 -0.1458629261888613
-0.9858841387750685 0.1102140507039853 -0.1260370101960528
-0.9919105900199768 0.05650918201537368 -0.1136665903164788
-0.9941971983839715 0.003162456036311264 -0.1075264134865471
-0.9929672771709552 -0.05017276391087063 -0.1072318993081939
-0.988208236406204 -0.1035631865890004 -0.1127791996889112
-0.9796582494758299 -0.1573563718913979 -0.1245338767529859
-0.9665867911072313 -0.2122828044581389 -0.1436871121166133
-0.9479594365133346 -0.2677063576428834 -0.1723549036230216
-0.9247161528630519 -0.3171883427846789 -0.2104556766534589
-0.8975255395836159 -0.3584809756232928 -0.2567864792221551
-0.8653021886206262 -0.3928704139830783 -0.3112956154286759
-0.824199798420999 -0.4228592188117571 -0.3766759527082857
-0.781330302212464 -0.4317554713832216 -0.4506774586943872
-0.72737284986341 -0.430280457768058 -0.5345909323440594
0 0 0
0 0 0
0 0 0
0 0 0
0 0 0
0 0 0
0 0 0
0 0 0
0 0 0
0 0 0
0 0 0
0 0 0
0 0 0
0 0 0
0 0 0
0 0 0
-0.6564406104550193 0.4626988395601462 -0.5958149954601133
-0.7081582148000897 0.5018865277890364 -0.4966103664192023
-0.788733988923524 0.4687461141460366 -0.3977131820668967
-0.8385974132984247 0.4442817045524051 -0.3152271330472673
-0.8754220746951252 0.4166966266546394 -0.2449492038589342
-0.9061944608896879 0.3803973755933555 -0.1846873999344152
-0.9313690035111634 0.3382931773793564 -0.13457156251304
-0.9522614049732139 0.290756694319704 -0.09305246534465481
-0.969470882975067 0.2378886541183183 -0.05945750840153264
-0.982889779894723 0.1810541136159805 -0.03386869529866683
-0.9922895489539061 0.1228991360726251 -0.01603912059482923
-0.9978990422621152 0.0646095190518788 -0.004807442172023611
-0.9999792683684116 0.006391496620870535 0.0007820513545147866
-0.9986576332202506 -0.0517838132037453 0.00116974399179082
-0.9939307981591651 -0.1099465622474936 -0.00364992063508304
-0.9856647093479243 -0.1681234510769654 -0.01412748895036593
-0.973600102960149 -0.2261135932349408 -0.03123271474544747
-0.9575419381849367 -0.2827697259566592 -0.05616688258600178
-0.9377905763313982 -0.3355339696958661 -0.08925127519625041
-0.9144477378009043 -0.3831336729611168 -0.1303607436083871
-0.8868172877048368 -0.4255971484911701 -0.1800615600954876
-0.8534393643279479 -0.4627169073101667 -0.2398631174333025
-0.8137751198102178 -0.4917130496067102 -0.3098198367185904
-0.7605772885446651 -0.5179049681627422 -0.3915311381006539
-0.6758957391053299 -0.5526082899642016 -0.4876361632632467
-0.6207743288594101 -0.5167716786094156 -0.5895644704494626
0 0 0
0 0 0
0 0 0
0 0 0
0 0 0
0 0 0
0 0 0
0 0 0
0 0 0
0 0 0
0 0 0
0 0 0
0 0 0
-0.6406663496593713 0.5086707461689489 -0.575152762669241
-0.7041499185287639 0.5350895420376998 -0.4667462632285546
-0.7560872218812833 0.5431098022398615 -0.3651901636391933
-0.8083983987403557 0.5222775855921724 -0.2715108699519037
-0.8493057624541883 0.4913903155361101 -0.1929126218250936
-0.8817062965902759 0.4542158391638361 -0.1276008542516554
-0.9086651755865873 0.4110526338765277 -0.07323476537386357
-0.931368237863285 0.362964984460917 -0.0284539198481489
-0.9505368567327773 0.310505148714637 0.008138587977779181
-0.9664603893623914 0.2540747730599429 0.03742092313175222
-0.979069807747397 0.1945410685793806 0.05980036950945108
-0.9881868227562075 0.1332400716355093 0.07572243156129743
-0.9937572147859045 0.07114842220185051 0.08593311398493653
-0.9958027515574176 0.008767257771134226 0.09110441911262983
-0.9943503562571977 -0.05365080014118001 0.09159126953697348
-0.9894085987416315 -0.1159131368179509 0.08737716777936673
-0.9809716947940644 -0.1777601371540907 0.07807603762883179
-0.9690513373121896 -0.2386881800309808 0.06298776362877349
-0.9537506784725119 -0.2977424550229176 0.04134094568522378
-0.9352940932115604 -0.35364426146231 0.01267657439300424
-0.9137463406959522 -0.4056119219454096 -0.02337934217438327
-0.8887528435341663 -0.4533676539068494 -0.06764727267918701
-0.8594785583543834 -0.4965244602607668 -0.1214910206222018
-0.8245860816260391 -0.5341920878263906 -0.1862702533747579
-0.7807788189912863 -0.5662003276064301 -0.2641999712962563
-0.7249969548753913 -0.5889536052482579 -0.3570897174191504
-0.6694496994534601 -0.583934579266881 -0.45919223320749
-0.6027174605187272 -0.560156338421943 -0.5682926528748879
0 0 0
0 0 0
0 0 0
0 0 0
0 0 0
0 0 0
0 0 0
0 0 0
0 0 0
0 0 0
0 0 0
-0.6030923893445136 0.5543062089851855 -0.5736063080155211
-0.672055735460229 0.5844132032244516 -0.4547552048431616
-0.7259905143173637 0.594864143458178 -0.3450716214773061
-0.7706013597581428 0.5875919905787413 -0.2467978868357938
-0.8106280726448122 0.5631238200679894 -0.160541867163028
-0.8447497269904204 0.5278281858587638 -0.08829102424740723
-0.8737665273049109 0.4854940392388015 -0.02876792702140394
-0.8988645395709646 0.4377639742357605 0.02013063245875747
-0.9207118493735706 0.3855817556427807 0.06013651252383924
-0.9396052774809801 0.3294834305579417 0.09264227716145287
-0.9555599096685889 0.269892014447884 0.1185898797175399
-0.9683893957204507 0.2074246965439874 0.1385531433054277
-0.9778352508739739 0.14292858155758 0.1530021003848311
-0.9836911353045863 0.07720348114256144 0.1624542176203618
-0.985836053596709 0.01086500502509912 0.1673595742545694
-0.9842235555319931 -0.05561373573756975 0.1679616180360042
-0.978872307269076 -0.121803162350519 0.1642345752365442
-0.9698702242790638 -0.1872188452674187 0.1558873055563283
-0.9573893961156986 -0.2512337090309468 0.1424330286547708
-0.941693609902426 -0.3130529486681689 0.1233328682837709
-0.9230881703273035 -0.3718621647634929 0.09811605484934213
-0.9017719794556098 -0.4271069304167193 0.06623418346079503
-0.8776987451590933 -0.4784636071514444 0.02678599219332042
-0.8504954908801037 -0.5255392394102395 -0.02158536153779782
-0.8193674197750291 -0.5675761375582953 -0.0805875889055985
-0.7829421720000534 -0.6031621049432606 -0.1523057138266761
-0.7402235988875202 -0.628789449546058 -0.2381026076916678
-0.6924460643735197 -0.6382995394902348 -0.3362917569911241
-0.6348216427862323 -0.6309056482597009 -0.4460488144185514
-0.5622850970762467 -0.6037602196368484 -0.5650743904921014
0 0 0
0 0 0
0 0 0
0 0 0
0 0 0
0 0 0
0 0 0
0 0 0
0 0 0
-0.5646685787622295 0.577873314481306 -0.589246831615608
-0.6301253851882821 0.6240595760837165 -0.4620515603691113
-0.6835623008384288 0.6444923561651082 -0.3425962400803895
-0.7276924636220259 0.6439452388584281 -0.2362164425675482
-0.7653859534992791 0.6272490356434474 -0.14402426694958
-0.7990434837141173 0.5977007431624017 -0.06544717531810899
-0.8292484690836169 0.5588801080230886 3.712920277084919e-05
-0.8564498927068789 0.5134021424740296 0.05396129525364808
-0.881032112091261 0.4627483286327426 0.0982160975177397
-0.9031504799366271 0.4077255448239723 0.1344585091700572
-0.9227416386714172 0.3487982643703497 0.1639745072693268
-0.9395704937542627 0.2863464349424579 0.1876512895295819
-0.9532884476642649 0.2208641008055572 0.2060586919428732
-0.9635143899671702 0.153012875213256 0.2196066491369595
-0.9699188800676019 0.08352526430703819 0.2286501614056892
-0.9722755488512351 0.01311270370027429 0.2334701567817558
-0.9704810110778932 -0.05755409017861494 0.2342095938277106
-0.9645615028813405 -0.1278161110454674 0.2308335957275323
-0.9546761740779404 -0.1969872166715014 0.2231354725630155
-0.9411142340821577 -0.2643353214457819 0.2107862335260731
-0.9242708717605491 -0.3291169023489896 0.1934048091522017
-0.9045836740037461 -0.390680424240959 0.17057896365258
-0.8824340252816094 -0.4485693378562521 0.1417594446959297
-0.8580572310355497 -0.5024755096247637 0.1060950069274635
-0.8314770777029724 -0.5520503018039677 0.06234046464915603
-0.8024476883009085 -0.5966564701548583 0.008874917626216979
-0.7704295015007292 -0.6350456764984331 -0.05617269779870374
-0.7347540764880193 -0.6648933914037217 -0.1343622906618311
-0.6945750455938134 -0.6829029847570522 -0.2262940994552459
-0.6472166420539534 -0.6859325608238721 -0.3325765178872509
-0.589818851072488 -0.668984634257588 -0.4522977802806142
-0.5205712504508139 -0.6262115867532585 -0.5804003978462121
0 0 0
0 0 0
0 0 0
0 0 0
0 0 0
0 0 0
0 0 0
0 0 0
-0.6022173823033046 0.6354957156262725 -0.483197081812801
-0.6382056975526588 0.6821001157679194 -0.3569774778339866
-0.677975714780142 0.6942655064226866 -0.2415457239530549
-0.7142914208624103 0.6854202847229613 -0.1413746772680788
-0.7470751950272683 0.6623462393054239 -0.05635700713248413
-0.7773695792862191 0.6288645283467543 0.01503137344290863
-0.8057544717303156 0.5875549231443978 0.07442407927129772
-0.832453453557954 0.5401355602669228 0.1235913597084032
-0.8574643933617261 0.4876222734037787 0.1642538663086414
-0.8805998404051393 0.4305747853933868 0.1978617579571182
-0.9015203053244979 0.3693305252737345 0.2255129756547301
-0.9197716784392503 0.3041998593054164 0.2479566598008779
-0.9348320577871984 0.2356107235832849 0.2656625880057493
-0.9461755253258159 0.1641672219402068 0.2789283035384728
-0.953344646772374 0.09062002608028411 0.287961794937567
-0.9560116556194074 0.01580653634357604 0.2929024884302937
-0.9540184401878565 -0.05939310024921245 0.2938048253931778
-0.9473967012603537 -0.1340793043359556 0.2906238644533264
-0.9363708384403715 -0.2073516759183964 0.2832224133297135
-0.9213407221587817 -0.2783419838872125 0.2713982566223752
-0.9028386815964889 -0.3462723329195163 0.25490740763577
-0.8814593467216393 -0.4105275536258975 0.2334449566621559
-0.8577767560126703 -0.4706934415792792 0.2065592430723756
-0.832271241577308 -0.526506267759473 0.1735388442204096
-0.8052727546346611 -0.5777176938527262 0.1333343798597782
-0.7769091039031084 -0.6239104516150845 0.08454580201245822
-0.7470545459299571 -0.664273789778696 0.0254919128045243
-0.7152729526063174 -0.697356895365994 -0.04558468772891158
-0.6806832248643714 -0.7208882470310736 -0.1303475457410098
-0.6418885853084577 -0.7313527485762382 -0.2304391485852344
-0.5987637642131803 -0.7221416346332462 -0.3464006555918813
-0.5591542642804621 -0.6793768076980208 -0.4751775056744808
0 0 0
0 0 0
0 0 0
0 0 0
0 0 0
0 0 0
0 0 0
-0.4850342177250226 0.695705451976429 -0.5298450072673585
-0.5707289756533264 0.7244570018353735 -0.3865623996735922
-0.6188059261475893 0.7407026479167181 -0.2616081289520369
-0.6562732853298409 0.7388936365167897 -0.1527794779326431
-0.6890297202314055 0.7222381535243571 -0.06008405971268486
-0.7192529950788867 0.6945198583269414 0.01781278921381555
-0.7480732602881847 0.6584098489816981 0.08296305205151655
-0.7759883564532214 0.6155999713051568 0.1373999489742173
-0.803072943095647 0.5671000774545705 0.1829517701983642
-0.8291240101883 0.513455891768921 0.2211705743019474
-0.8537452007963005 0.4549390597483886 0.2532776816708021
-0.8763971479899695 0.3917182459695811 0.2801514853959577
-0.8964374530513698 0.3240084211839983 0.3023548176706057
-0.9131674440871743 0.2521869773209398 0.3201982940757561
-0.9258958798759616 0.1768559329331483 0.3338245027182156
-0.9340165482571252 0.09884183870900387 0.3432832336460198
-0.9370852040737425 0.0191526060262491 0.3485749531857886
-0.9348802978204303 -0.06108468321991503 0.3496676854144595
-0.9274376328250041 -0.1406925523450729 0.3465040301851927
-0.9150531372817912 -0.218517212438637 0.3390103004612079
-0.8982517016687722 -0.2935073189230227 0.3271044698376551
-0.8777242204086089 -0.3647914146794152 0.3106886169210099
-0.8542436749895178 -0.4317355051776048 0.2896069704089334
-0.8285779390717501 -0.4939542250631979 0.2635674912158669
-0.801416323474766 -0.5512571650327828 0.2320504567291515
-0.7733113139861433 -0.6035410195940051 0.1942365808195068
-0.7446240180544825 -0.6506482821326307 0.148969408585299
-0.7154549453863592 -0.6922032585901147 0.09475689905979413
-0.6855394956103809 -0.7274247279043459 0.02981384228092709
-0.6540867218593517 -0.7549026718011675 -0.04788022968559368
-0.6195773393469294 -0.7722739050001806 -0.1404170083129218
-0.5794294335818041 -0.7759787720166862 -0.2492357857101275
-0.5275780631028214 -0.762609960814123 -0.3742825603735187
-0.4377195471845405 -0.736370603110952 -0.5159069033135462
0 0 0
0 0 0
0 0 0
0 0 0
0 0 0
-0.4129322041522098 0.6945140380491143 -0.5891835416291856
-0.4878784623936383 0.7528215549246716 -0.4418532701850446
-0.5471096924106095 0.7806893752087746 -0.3019852378950013
-0.5899876267142109 0.7869490102026525 -0.1806262873039183
-0.6245259047677513 0.7771164143486453 -0.07782976823764684
-0.6551919478298409 0.7554171109438279 0.008276472208546796
-0.6841905139703834 0.7248819924748556 0.08018377378637898
-0.712579760953585 0.6873934952305971 0.140428868093403
-0.7407605053929334 0.6439745475857184 0.1912345567928941
-0.7687121365749209 0.5950917531628324 0.2344087378917565
-0.7961257257206934 0.540882624662021 0.271348143875026
-0.8224816897785446 0.4813277319689278 0.3030634989844164
-0.847097296134802 0.416395938813203 0.330212951019457
-0.8691661663462356 0.3461743114603564 0.3531480162254002
-0.887808401949481 0.2709784517751987 0.3719770424386757
-0.9021432978623724 0.1914259923012764 0.3866439700725643
-0.9113843416941584 0.1084577322807565 0.3970081888616662
-0.914942446525411 0.02330257284052368 0.4029110443325011
-0.9125155611589276 -0.06260595323050454 0.404222519490078
-0.9041425052154289 -0.1477485476454048 0.4008699252019797
-0.8902064873087703 -0.230655834759522 0.3928489478728019
-0.8713855143727424 -0.3100389458349015 0.3802145938899946
-0.8485616241334034 -0.3848910752769811 0.3630454933203402
-0.822710552492895 -0.4545404439275599 0.341380039912956
-0.794796894709916 -0.5186425400341946 0.3151314199288176
-0.7656901938908829 -0.5771155715775981 0.2840002535597523
-0.7361032482700594 -0.6300358585023556 0.2474001311387418
-0.7065387618208206 -0.6775125060147504 0.2044010328699778
-0.6772253686074993 -0.7195461214662514 0.1536853252503652
-0.6480197779518176 -0.7558608496653199 0.09351333234623355
-0.6182525728720057 -0.785679608687553 0.02170964370316056
-0.5864784147471144 -0.8074127971571133 -0.06424674328428771
-0.5500081192550769 -0.8183200963048813 -0.1668630838054418
-0.5039088785626745 -0.8143304256973819 -0.2879961803379136
-0.4400605756922539 -0.7897340094855811 -0.4273954655623166
-0.3603246250412045 -0.7350241548556304 -0.5743741431921189
0 0 0
0 0 0
0 0 0
0 0 0
-0.4428827440588737 0.7371473997940455 -0.5103612308862804
-0.4800029525323252 0.7983753477568825 -0.3635848864492672
-0.5201801890900322 0.8229292487589234 -0.2284732422305331
-0.5551878641223142 0.8240945344197057 -0.1124038872587187
-0.586118177694964 0.8100803713417342 -0.01533863560985684
-0.6150069030034094 0.7858134830287283 0.06529685404682785
-0.6432510115552756 0.7540903556016511 0.1325740235554809
-0.6715891319866539 0.7163315585039212 0.1893069890119105
-0.7002772672641767 0.6731001407922549 0.2377981274494455
-0.7292210496309931 0.6244556049179757 0.2798068231148004
-0.7580559205417196 0.5701903196437068 0.3165978848891015
-0.7861926788627608 0.5099990786443477 0.3490014491152028
-0.8128460849711393 0.4436206505752588 0.377467827145937
-0.8370648765365379 0.3709718042611006 0.4021222611496823
-0.8577820494292316 0.2922732809806566 0.4228312723791708
-0.8738996892380474 0.2081505860048769 0.4392865428117164
-0.8844106267404356 0.1196827071614361 0.4511029737378143
-0.8885414820083127 0.02837563603778751 0.4579179599337875
-0.8858847355919811 -0.06394915516269914 0.4594765943974752
-0.8764813787954359 -0.1553375361606897 0.455687000565495
-0.8608255055414697 -0.2439192299313763 0.4466350392422844
-0.8397881322941304 -0.3281057954962665 0.4325534415765264
-0.8144839557681219 -0.4067257537745818 0.4137511897418658
-0.786120423465005 -0.479073967031884 0.3905160866386093
-0.7558639021269316 -0.5448794507321596 0.363009842333879
-0.7247425405741685 -0.6042132041666074 0.3311716379656036
-0.6935840352633367 -0.6573654533095117 0.2946385019358569
-0.6629742068981476 -0.7047121025915729 0.2526777660355895
-0.6332146130437878 -0.7465744565414602 0.204122107248648
-0.6042595398957545 -0.783053543339255 0.1473009053224314
-0.5756127626529375 -0.813801324734173 0.07998344411162682
-0.5461718711360269 -0.8376729220212915 -0.0006024052471220369
-0.5140464917831569 -0.852198816177639 -0.09753656745477025
-0.4766412964712117 -0.8527787734626596 -0.2134980984218912
-0.4325091494191879 -0.8313907910768172 -0.3488913701732304
-0.3906402298573608 -0.7744019362047766 -0.497696546119501
0 0 0
0 0 0
0 0 0
-0.3288944917492082 0.7312400073930725 -0.597592222911919
-0.4080397907846973 0.7996530525998108 -0.4405207425356767
-0.4509753147622653 0.8425198862601707 -0.29458701045909
-0.4847682720948781 0.858929892688211 -0.1650429090169091
-0.5145272082893526 0.8557126374205543 -0.05493299635668671
-0.5423442558167878 0.8393530448706289 0.03673110737424192
-0.5695787922719857 0.8141508581246073 0.1128644302202928
-0.5970848192804413 0.7824702976277 0.1767199816525018
-0.6253065896002554 0.745350348626181 0.2311807232563464
-0.6543653611601701 0.70300866190261 0.278540473546703
-0.6841160256937172 0.6551854764679699 0.3204953272896068
-0.7141734390431077 0.6013715669324369 0.3582018110654464
-0.7439189419600062 0.5409744621368867 0.3923407181377054
-0.7725001225990984 0.473466333545049 0.4231704049006567
-0.7988413404868515 0.3985376221096043 0.450577714154164
-0.8216862130580269 0.3162595066353059 0.4741431131347907
-0.8396922305379827 0.2272335774247478 0.4932361090440335
-0.8515855605371083 0.1326873327524086 0.5071450530289633
-0.8563591988137915 0.03446545917976197 0.5152291283793344
-0.8534676021377964 -0.06511595404633817 0.5170618576435462
-0.8429526843412489 -0.1635416493019022 0.5125279513407006
-0.8254507456877513 -0.2584284400303191 0.5018424133401145
-0.8020754824569787 -0.3478186233708367 0.485486483517121
-0.7742225070002658 -0.4303579837790831 0.464081367274991
-0.7433602056843276 -0.5053349775165574 0.4382375669694395
-0.7108598154187185 -0.5726051874360706 0.4084135430469553
-0.6778859127965292 -0.63244996417333 0.3748035912970546
-0.6453426742895004 -0.685413637846923 0.3372550634079826
-0.6138538871632838 -0.7321465216897995 0.2952031097262586
-0.5837535020949818 -0.7732548070797433 0.2476062441052573
-0.5550642364521315 -0.8091372428841697 0.192874611054996
-0.5274493020037034 -0.8397659613457318 0.1288035868323713
-0.5001270112146985 -0.8643548717618819 0.05257022270214371
-0.4717619922931005 -0.8808599069676539 -0.03906976995811079
-0.4403910462190755 -0.8853374269521233 -0.1491085740253094
-0.4033518337151165 -0.8715628766304719 -0.2787210977272246
-0.3554660496852984 -0.8325019925685018 -0.4249521383527826
-0.2710600736131297 -0.7676934491827143 -0.5806661730932769
0 0 0
0 0 0
-0.3597573045035655 0.7634089214215909 -0.5364527011305393
-0.388382905360419 0.8394105196371737 -0.3801956053747189
-0.4170803552837432 0.8776013399273738 -0.2363469174625807
-0.4435610110847892 0.8892602566297686 -0.111668372533127
-0.4688034216425667 0.8832753148741467 -0.006933252497800395
-0.4938235982572821 0.8658694334587836 0.0800523454122026
-0.5193638089860928 0.8408171162439518 0.1526034434298967
-0.5458914397620965 0.8100509391931576 0.2140560952338145
-0.5736403129206609 0.7742750873166552 0.2672730449429416
-0.6026424518048616 0.7334251535524857 0.3144989974851062
-0.6327357733706671 0.6869740355137012 0.3573683192828421
-0.6635496746597802 0.6341349760383845 0.3969567500669273
-0.6944755339956871 0.5740177389350375 0.4338287312630547
-0.724633702451573 0.5057827403372755 0.468070311863763
-0.752855091888579 0.4288232020891892 0.499319408762981
-0.7777045413117422 0.3429818114978734 0.5268198206263025
-0.797577087040801 0.2487773000338966 0.5495276564608506
-0.8108876367412721 0.1475777323396405 0.5662879598734584
-0.8163405132925461 0.04163218431901546 0.5760685094553329
-0.8132127735399095 -0.06611395912603346 0.5781988666196159
-0.8015456793536969 -0.172418139257271 0.5725351597626823
-0.7821548428671385 -0.2742426523002518 0.5594861655472851
-0.756452674439257 -0.3691843360995765 0.539890986507841
-0.7261630758079088 -0.4557046568708014 0.5148013724141203
-0.6930367018913298 -0.5331385083200053 0.4852457735806743
-0.6586404813450023 -0.6015451499405546 0.4520355615619401
-0.6242440626047284 -0.6614884135738495 0.415634970870228
-0.5907849760531451 -0.7138157359139512 0.3760853722647402
-0.558880962010978 -0.7594676954825657 0.3329577898474281
-0.5288566544018976 -0.7993182230044278 0.285308635459698
-0.5007623572003884 -0.8340187402329527 0.2316242702122295
-0.4743678204061056 -0.8638032369314941 0.1697620064379352
-0.4491245237271285 -0.888195691724036 0.09693077627740514
-0.4241018073966754 -0.9055613281133128 0.009815191721280201
-0.3979418105452451 -0.9124822209519323 -0.09496584578994995
-0.3689589701844662 -0.9030789028352773 -0.2198130423206259
-0.3358203053961307 -0.8685890722088561 -0.3643868083822565
-0.3018017489507764 -0.797164750115496 -0.5229187943682558
0 0 0
0 0 0
-0.3430708082396028 0.8067401465309262 -0.4811161569819547
-0.3564599775583525 0.8755455098940668 -0.3261232044848032
-0.3758458937887356 0.9077381448347515 -0.1864170714664027
-0.3967209471852837 0.9154968520235299 -0.06691788998031538
-0.4183072364945404 0.9077092124145759 0.03290959729334658
-0.4407972596204214 0.8900859554606191 0.1159515752496838
-0.4645039010596538 0.8658722523831944 0.1857454399257656
-0.4896582473752992 0.8365993797296166 0.2456344410162596
-0.5163787759429027 0.8026790833589286 0.2984279626539359
-0.5446648884096286 0.763808778733401 0.3463182190753423
-0.5743768834916291 0.7192282781059804 0.3908988100303573
-0.605195816840154 0.6678881004241384 0.433201464206914
-0.6365664670486268 0.608585958942625 0.4737153824894381
-0.6676319855464311 0.5401215287120719 0.5123829291624225
-0.6971795216423771 0.4615076369565331 0.5485903896654609
-0.7236308258083491 0.3722556189128115 0.5811920354992538
-0.7451253498948298 0.2727099040169217 0.6086193565728816
-0.7597386584319253 0.1643451700381508 0.6291167109282575
-0.7658359585548625 0.04987812692050097 0.641098632847752
-0.762475667206978 -0.06695272557137517 0.643543463532835
-0.7496958398360535 -0.181967301830453 0.6362735644336158
-0.728529864172658 -0.2913010872004079 0.6199902528301783
-0.7007401556093135 -0.392030063324726 0.5960500513935435
-0.6684113629492807 -0.4824547680620794 0.566095086230617
-0.6335736683801734 -0.5620421455576966 0.5316888501296508
-0.5979565933264891 -0.631156482366773 0.4940540529777897
-0.5628843838497812 -0.6907290728536537 0.4539322838626743
-0.5292751478102111 -0.7419627614896499 0.4115325970966716
-0.4976920051541284 -0.7861072242759042 0.3665216227549142
-0.4684071707232345 -0.8242941098449917 0.3180156330904295
-0.441451739004385 -0.8573981488820637 0.2645539196905127
-0.4166386808489068 -0.8858745119574558 0.2040552834028608
-0.3935527624847016 -0.9095145004697007 0.1337893739278637
-0.3715209849889716 -0.9270533538390618 0.05044042871121289
-0.3496237664184556 -0.9355768826803934 -0.04958950039483777
-0.3269603926479635 -0.9297306478734517 -0.169404321209054
-0.3038135538912335 -0.9008666181665657 -0.3100591245957985
-0.2854547415372125 -0.8364629711822544 -0.4678090298133175
0 0 0
0 0 0
-0.2955613672516687 0.8509073046958262 -0.4342812878810321
-0.3089429402352534 0.9088458737341657 -0.2802738615625383
-0.3260477201955431 0.9341768587228289 -0.1449361265593775
-0.3441815531701115 0.9384153066048746 -0.03026170496003573
-0.363212047812183 0.9294094035595314 0.06538477574478342
-0.3834264543920605 0.9120709154469918 0.1452955583217145
-0.4050852535875213 0.8890966138141027 0.213103610082582
-0.4283618836619177 0.8616568204852436 0.2721279484670289
-0.4533513901053618 0.8299165587385628 0.3251323155594917
-0.4800709711636647 0.7933752823665942 0.3742826792354977
-0.508436240834613 0.7510712474417036 0.4211704764965488
-0.5382120444760852 0.7017087309097562 0.4668325739983136
-0.5689389285195113 0.6437659905399623 0.5117361087896483
-0.59984126223033 0.5756392827868323 0.5557246406617087
-0.6297342409194521 0.4958766364988075 0.597947445172425
-0.6569692141255816 0.4035378049819369 0.6368270500234543
-0.679482852736054 0.2986686634954965 0.6701492985025705
-0.6950257210139376 0.1827805424096736 0.6953635886681737
-0.701600990620782 0.05910680464192147 0.7101143820575376
-0.6980172584212642 -0.06763546366912634 0.7128796188700612
-0.6843062022702533 -0.1920764490433294 0.7034427192439819
-0.661745964623902 -0.3093304385171404 0.6829399374108782
-0.6324736801568793 -0.4158914549940175 0.6534610482437128
-0.5989254682926181 -0.5099599997138807 0.6174375127268233
-0.5633636842170283 -0.5912552135821344 0.5770949936685992
-0.5276098386858403 -0.6605667935517846 0.5341155019081688
-0.4929703340657017 -0.7192799075586782 0.4895065518596551
-0.4602817226383721 -0.7689983709980127 0.44360144409983
-0.4300055638186982 -0.8112910755322034 0.3961085783554344
-0.4023234867741505 -0.8475338079677527 0.3461535155701437
-0.3772086346781064 -0.8787955483335289 0.2922875812508128
-0.3544604309835155 -0.905714503043372 0.232462990267004
-0.3337005821249267 -0.9283035100066037 0.1640015695013416
-0.3143342202486049 -0.9456222253977284 0.08362179628869609
-0.2955127640810679 -0.9552589688222874 -0.01234944329702583
-0.276230882047192 -0.9526131956044097 -0.1273758193841521
-0.256031601455118 -0.9300621948060172 -0.2634997777018821
-0.2381014085359029 -0.8759053489708898 -0.419639772778275
0 0 0
-0.1284201292792468 0.8137806913806077 -0.5668061897439026
-0.2155407697335159 0.8915571173490612 -0.3983316245126859
-0.249357307644946 0.936825593760016 -0.2453135544568555
-0.2698513732367879 0.9562433208137923 -0.1130440080730948
-0.2871137893107469 0.9578947525737265 -0.001820708472706402
-0.3041696358796655 0.9482771241846755 0.09083682269252139
-0.3220966098361221 0.9315764129393818 0.1685798350547021
-0.3413438013659527 0.9100474588305565 0.2351553357784743
-0.3621285106087744 0.8845825613031679 0.2938990201456906