# OOMMF: rectangular mesh v1.0
# Segment count: 1
# Begin: Segment
# Begin: Header
# Title: 
# Desc: time = 1.6e-10
# Desc: stepsize = 1.0903815939960454e-13
# Desc: step = 1022
# meshunit: m
# valueunit: (none)
# valuemultiplier: 384000.0000000001
# xmin: 0
# ymin: 0
# zmin: 0
# xmax: 9.357999999999999e-08
# ymax: 9.357999999999999e-08
# zmax: 2.3395e-08
# ValueRangeMaxMag: 1
# ValueRangeMinMag: 0
# meshtype: rectangular
# xbase: 1.16975e-09
# ybase: 1.16975e-09
# zbase: 1.16975e-09
# xstepsize: 2.3395e-09
# ystepsize: 2.3395e-09
# zstepsize: 2.3395e-09
# xnodes: 40
# ynodes: 40
# znodes: 10
# End: Header
# Begin: Data Text
0 0 0
0 0 0
0 0 0
0 0 0
0 0 0
0 0 0
0 0 0
0 0 0
0 0 0
0 0 0
0 0 0
0 0 0
0 0 0
0 0 0
0 0 0
0 0 0
-0.8085250372777945 0.01923784439822142 -0.5881472344896731
-0.8188355794718863 0.04394316595213141 -0.5723436834254774
-0.8302948679848005 0.02994938760096733 -0.5565190620099453
-0.8369977043039531 -0.0002333402396500317 -0.5472063491428476
-0.8370541375677057 -0.03520847235688788 -0.5459860202011384
-0.8304768153696523 -0.06617504076362975 -0.5531085997463894
-0.8191810594063564 -0.08165250356427797 -0.5676929280619624
-0.8091018359459855 -0.05862836265474715 -0.5847366365820242
0 0 0
0 0 0
0 0 0
0 0 0
0 0 0
0 0 0
0 0 0
0 0 0
0 0 0
0 0 0
0 0 0
0 0 0
0 0 0
0 0 0
0 0 0
0 0 0
0 0 0
0 0 0
0 0 0
0 0 0
0 0 0
0 0 0
0 0 0
0 0 0
0 0 0
0 0 0
0 0 0
0 0 0
-0.7567101276124992 0.2133667372970495 -0.6179517927669491
-0.7851089921789434 0.2492514569633196 -0.5669899307760461
-0.8231269967205159 0.2372605276401518 -0.515916068070941
-0.8611420521211219 0.1934847189155197 -0.4701042752568884
-0.8947808073560091 0.115131746237116 -0.431406986262068
-0.9088893242190507 0.07905899243967583 -0.4094751177239714
-0.9180925180101538 0.04467320497296154 -0.3938406189453019
-0.9229418989851803 0.006153282883769803 -0.3848900988689901
-0.9228950672389729 -0.03440813229255474 -0.3835111149603219
-0.9179566956807008 -0.07359270695705726 -0.3897943282523507
-0.9086604367773377 -0.1092663776856447 -0.402985197424267
-0.8943682739349759 -0.1470263285148836 -0.4224791702581379
-0.8602881251154505 -0.2264518755806337 -0.4567536423843332
-0.8216041622170779 -0.2733863443361029 -0.5002264560757607
-0.7829629466230643 -0.2895246056094769 -0.5505856218264374
-0.75414745675916 -0.2581984380946378 -0.6038171743410248
0 0 0
0 0 0
0 0 0
0 0 0
0 0 0
0 0 0
0 0 0
0 0 0
0 0 0
0 0 0
0 0 0
0 0 0
0 0 0
0 0 0
0 0 0
0 0 0
0 0 0
0 0 0
0 0 0
0 0 0
0 0 0
0 0 0
-0.7360779826101548 0.2996295297202626 -0.6069689847398945
-0.774448158723956 0.3340254061966905 -0.5372681615955012
-0.8308709052547103 0.3012946704965935 -0.4678408493617959
-0.8658135127200725 0.2851231673948534 -0.4111833418392028
-0.8969463383516043 0.2566626739481677 -0.3600160245314439
-0.9248070211694901 0.2121818930066797 -0.3157701978903573
-0.947027764513106 0.1550940987693268 -0.2812191916783747
-0.9601330931362653 0.1058666433693957 -0.2587212733547134
-0.9679690879830448 0.05948032433520491 -0.2439219869676582
-0.9717340676470013 0.01277139707432699 -0.2357324610463785
-0.9715765262394587 -0.03453515853234609 -0.2341930325300293
-0.9674904682308136 -0.08177121886751862 -0.239323341209003
-0.9593016552990198 -0.1292060932583968 -0.2510898636055674
-0.9457543819056853 -0.1799564686419226 -0.2704890358223845
-0.9229655764090668 -0.2389574217947877 -0.3017182383169209
-0.8944836532456506 -0.2862728979722192 -0.3434338683981259
-0.8627595287827976 -0.3183557597519393 -0.3928047934117528
-0.8272770932480499 -0.3387798085875405 -0.4481527108926666
-0.7705417264577136 -0.3754069053981719 -0.5151068851868836
-0.7314962800166463 -0.3467568768744914 -0.5870884606786749
0 0 0
0 0 0
0 0 0
0 0 0
0 0 0
0 0 0
0 0 0
0 0 0
0 0 0
0 0 0
0 0 0
0 0 0
0 0 0
0 0 0
0 0 0
0 0 0
0 0 0
0 0 0
0 0 0
-0.746753719337054 0.3781727526177767 -0.5471236165929684
-0.7989253355445336 0.382916509216715 -0.4637814735350467
-0.8397101006514827 0.3780420266952459 -0.3898348020841997
-0.8787498196753759 0.3512674847448753 -0.3231252212092124
-0.9090911570573107 0.319509940102465 -0.2673325014582373
-0.9344523026371736 0.2803093704014307 -0.2196031670109445
-0.9558462031721003 0.2324434401438441 -0.1798001196205785
-0.9726342113889295 0.1781940857083268 -0.1490958036109943
-0.9839884425884778 0.1241395385128592 -0.1278910467160043
-0.9909289538245775 0.07096057799826866 -0.1141245146420322
-0.9941408852779527 0.01794054080734385 -0.10659285723869
-0.9938549700431303 -0.03525563670873979 -0.1049253954046827
-0.9900636815733469 -0.08868330656457124 -0.1091291783447669
-0.9825187485875624 -0.1426771701117195 -0.1195831668874887
-0.9705203974275576 -0.1979518754522153 -0.1374962297010565
-0.9530647155480034 -0.2538577647633575 -0.1649966158645517
-0.9310242830121115 -0.3039757469491339 -0.2019716061937898
-0.9050433517383411 -0.3460846686318917 -0.2472285048536728
-0.8740695542222314 -0.3814887261805852 -0.3007802622827229
-0.8343539471434401 -0.4126812492585163 -0.365441756503812
-0.792761256141332 -0.423030938914538 -0.4388330154880113
-0.7401480271410533 -0.423217174749878 -0.5225592032640294
0 0 0
0 0 0
0 0 0
0 0 0
0 0 0
0 0 0
0 0 0
0 0 0
0 0 0
0 0 0
0 0 0
0 0 0
0 0 0
0 0 0
0 0 0
0 0 0
-0.6466175639955417 0.4619590759850571 -0.6070251543778914
-0.6990040975882115 0.5033973146228657 -0.5079216624494147
-0.7808641848913483 0.472288616347277 -0.4088943477510347
-0.8316006378357824 0.4497872268203301 -0.3257788049281227
-0.8691254681852912 0.4240384346031587 -0.2545826516693556
-0.9005641469011491 0.3894220056523316 -0.1932219418956362
-0.9263857523540157 0.3488287438414889 -0.1418729900490311
-0.9479519233543151 0.30262159344784 -0.09903192509460866
-0.9658934236616631 0.2508918033277673 -0.06405620305708909
-0.9801054195184759 0.194989295174093 -0.03704782582044307
-0.9903359881640913 0.1375447206371363 -0.0177786493273392
-0.9968024673839792 0.07974178335502723 -0.005107739673319568
-0.9997606340148899 0.02179561022348903 0.001904218771664975
-0.9993338354612451 -0.03630834526906133 0.003686375745786515
-0.9955169356448728 -0.09458319246028396 0.0002248294076645932
-0.9881800109907233 -0.1530372018464092 -0.008937601993524445
-0.9770744610935401 -0.2114512851781845 -0.02477602622015056
-0.9620122668070565 -0.2686648676738837 -0.04849316849333214
-0.9432782102056207 -0.3221192723444625 -0.08040766465675986
-0.9209751472771304 -0.3705499908577609 -0.1204054914577417
-0.8944365081352177 -0.4139963501915336 -0.1690868266393543
-0.8622472323252871 -0.4522602834113325 -0.2280139171105192
-0.8238562427486321 -0.4825771149301657 -0.297288108456736
-0.7721634199060909 -0.5102389398556264 -0.3787081689295012
-0.6895407383538199 -0.5464234527901011 -0.4753472208727135
-0.6356706786462316 -0.5124911191657375 -0.5773003040755206
0 0 0
0 0 0
0 0 0
0 0 0
0 0 0
0 0 0
0 0 0
0 0 0
0 0 0
0 0 0
0 0 0
0 0 0
0 0 0
-0.6315035561687773 0.506011333358878 -0.5874996077092798
-0.695773348383109 0.5347908115632232 -0.4794770438168081
-0.7484085362869096 0.5451624043178817 -0.3777335247647889
-0.8014999319781579 0.5265340535084756 -0.2834779524671032
-0.8430285207328898 0.4976901319564514 -0.2039790327070038
-0.8759389965379282 0.462394896213315 -0.1375566585084276
-0.9033775444520984 0.4209444885327701 -0.08194357664625657
-0.926577622391447 0.3743938326918717 -0.03582133059648803
-0.9462998484060233 0.323282927971526 0.002178391354525784
-0.9628572615535013 0.2679972906151056 0.03291422331841178
-0.9761836393282068 0.2093846089308629 0.05677664881627078
-0.9860854916112727 0.1487645157319968 0.07419246655003905
-0.9924894027977536 0.08710923906684744 0.08588810047586685
-0.9953988304094071 0.02492794176939155 0.0925190042030587
-0.9948248488123259 -0.03750967900969942 0.09442745451467686
-0.990764304789678 -0.09998842290050609 0.09158825055919748
-0.9832055161838938 -0.162223219907068 0.08360944844062146
-0.9721597559398328 -0.2236851050311983 0.06978812734402606
-0.9577318830671759 -0.2833972472852868 0.04935220752633402
-0.9401478029658641 -0.3400661766533823 0.02184271216695906
-0.9194859265758547 -0.3929039572526801 -0.01311911598108322
-0.8954223193227485 -0.4416351534065489 -0.05636720087287327
-0.867164228512743 -0.4858825072126152 -0.1092903928654366
-0.8334168135144494 -0.5247735395901644 -0.1732892007524732
-0.7909666563580281 -0.5581572647022255 -0.2506635521768781
-0.7367944024836866 -0.5824645488901222 -0.3433206340360758
-0.6827048793427294 -0.5792910525406557 -0.4453492159732268
-0.6174062617490756 -0.5575948208070661 -0.554885144658034
0 0 0
0 0 0
0 0 0
0 0 0
0 0 0
0 0 0
0 0 0
0 0 0
0 0 0
0 0 0
0 0 0
-0.5945598200124168 0.5497292355517935 -0.5867677462219975
-0.6643423859823945 0.5823292789208001 -0.4685528839936848
-0.7189218858200381 0.5952942684597854 -0.3588538087130863
-0.7640356051038283 0.590433814368643 -0.260072114967602
-0.8044928148827427 0.5682202313293085 -0.1729655442858701
-0.8389513848169269 0.5350093292433767 -0.09962726301726851
-0.8682548482875341 0.4945939710087497 -0.03886286488392767
-0.893651568086886 0.448617170639821 0.01138020487385641
-0.9158591600382706 0.3980121011173681 0.05280498402736917
-0.9352091684852298 0.3432957117330516 0.08678632085105116
-0.9517339009752628 0.2848665218937342 0.1142525555012866
-0.965245302917921 0.2233157984459847 0.1357628791655606
-0.9754668141584344 0.1594705074111348 0.151768414835331
-0.9821650765838417 0.09412312777690764 0.1627654728637118
-0.9851896441486762 0.02789683058486554 0.1691837223420843
-0.9844667038595541 -0.03871508698130788 0.1712496745454836
-0.9799929539820729 -0.1052537035927854 0.1689244447245347
-0.971841674583191 -0.1712000396436807 0.161908325818472
-0.9601783492864673 -0.2358908221919012 0.1497099113857958
-0.9452675252300624 -0.2984974147802523 0.1317899810871025
-0.9274232130296286 -0.3581775618267482 0.107680165943619
-0.9068643963489562 -0.414358767322453 0.07683604998735762
-0.8835775362219395 -0.4667112168110119 0.03835853994550979
-0.8572320752010525 -0.5148496366847132 -0.009111577915778914
-0.8270812263141506 -0.5580394712750723 -0.06729482578711402
-0.7918040787822935 -0.594909553974182 -0.1383073512650819
-0.7504138268961584 -0.6220126308327325 -0.2235606751814918
-0.7040346442286097 -0.6332649333135736 -0.3214198873144743
-0.6478863972053673 -0.6279005996025491 -0.4312586849386433
-0.5768670017547043 -0.6029952949658085 -0.5510182724153848
0 0 0
0 0 0
0 0 0
0 0 0
0 0 0
0 0 0
0 0 0
0 0 0
0 0 0
-0.5569463260099174 0.5712778355251498 -0.602870155656883
-0.6231422628138373 0.6200986699329635 -0.4766249677079655
-0.6771667318677961 0.6432109159869679 -0.3573862543617106
-0.7216899049137782 0.6452429131441557 -0.2506496841864851
-0.759608345682903 0.6309719722483895 -0.1577007653940209
-0.7933852429819274 0.6036887832005851 -0.07810063544110518
-0.8236526381761539 0.5669796956958515 -0.01141736808992806
-0.8509194115860247 0.5234649511777492 0.04382464916653074
-0.8756300140176765 0.4746204400805186 0.08948472723977979
-0.8979873783555908 0.4212337946867549 0.1272036105142038
-0.917958593458962 0.3637398889696047 0.1582571131646949
-0.9353198970131317 0.3024834481229071 0.1835223524887923
-0.9497145922424506 0.2379239403028703 0.2035543954635007
-0.9607364564949745 0.1706965466079339 0.2187422001754686
-0.968019622839544 0.1015225949356053 0.2294148480703184
-0.9712967699531848 0.03112052292213351 0.2358264144059397
-0.9704254699965486 -0.03981469243222287 0.2380949336892841
-0.9653997007594809 -0.1105863558354787 0.2361653566392265
-0.9563565923688192 -0.1804618596142434 0.2298164168576048
-0.9435749808231838 -0.2486593317949909 0.2187116646998882
-0.9274517775676997 -0.3143871970137959 0.2024694807627115
-0.9084379175622366 -0.3769531415945932 0.1806844735364733
-0.8869397518620307 -0.4358715480420536 0.1528197309719616
-0.8632272568171382 -0.4908209920196063 0.1180400647273926
-0.8373657354615618 -0.541457526674113 0.07511572327328862
-0.8091530401926668 -0.5871694722930615 0.02243587203679855
-0.7780892430143196 -0.6267564566133477 -0.04187450296878925
-0.7435230881187435 -0.6579636758533327 -0.1194035958082382
-0.7045897717385411 -0.6775751424616826 -0.2108202549079684
-0.6586097892116678 -0.6825132280143466 -0.316873538087355
-0.6026781472553501 -0.6677922776530465 -0.4368438218949817
-0.5348549749016589 -0.6274759437196972 -0.5658657931665604
0 0 0
0 0 0
0 0 0
0 0 0
0 0 0
0 0 0
0 0 0
0 0 0
-0.5962290554422998 0.6295299009060776 -0.4981997765069414
-0.6325996120085516 0.6789926382895418 -0.372540907868165
-0.6726587033156184 0.6939008590461658 -0.2569666645087317
-0.7090671896104799 0.6876280561526894 -0.1561773895593378
-0.7417758784871952 0.6669598993350161 -0.07023559477625536
-0.7718984729926472 0.6357417552520953 0.002273328089736264
-0.8000895289478657 0.5965717568058456 0.06291966822519456
-0.8266446851856815 0.551171204961864 0.113441029945747
-0.8516246660084168 0.5005410839117831 0.1555443716836743
-0.874889218622572 0.4452100129471557 0.1906748528505482
-0.8961267581724777 0.3854724957031528 0.2199267795055154
-0.9148898486568997 0.3215905816606156 0.244041108446387
-0.9306418689484935 0.2539458964997023 0.2634714280733622
-0.9428231373927017 0.1831070719996401 0.2784893746280109
-0.9509286995815315 0.1098078166367231 0.2892695139790092
-0.9545771320691049 0.03489170730410762 0.2959139531893124
-0.9535584929741664 -0.04073196752262491 0.2984411286980599
-0.9478617241745607 -0.1161151519760061 0.2967750382468466
-0.9376823474485181 -0.1902961842507954 0.2907562166885224
-0.9234078983275013 -0.2623400909067077 0.2801705373686655
-0.9055746496235967 -0.3314047956213117 0.2647742725385082
-0.8847959250876711 -0.3968203327402181 0.2442740151391352
-0.8616758035192824 -0.4581333496994807 0.2182398761054714
-0.8367324623084474 -0.5150602432245804 0.1859885275189784
-0.8103367700337823 -0.567355004656079 0.1465012553629376
-0.782656742650503 -0.6146258776490295 0.0984045410937102
-0.753601042099489 -0.6561119731596173 0.04003183761904062
-0.7227565692153551 -0.6904344778244659 -0.03038377012988792
-0.6892501969244544 -0.7154101309726771 -0.1145535269699598
-0.6516804541956879 -0.7276143731078665 -0.2142193027393833
-0.6098544875857564 -0.7205112722867515 -0.3300621312408326
-0.5713513005770603 -0.680267879984587 -0.4591223178959795
0 0 0
0 0 0
0 0 0
0 0 0
0 0 0
0 0 0
0 0 0
-0.4789258238962604 0.6879938512952702 -0.5452472061232309
-0.5657109611483421 0.7195340830537991 -0.4027925170116085
-0.6142056893666357 0.738598579511341 -0.2778911828278911
-0.6517332722981419 0.7394725724193842 -0.1685943546475211
-0.6842935132074009 0.7253302793258726 -0.07508910490426392
-0.7141506973407267 0.6999815028140574 0.003831084171240168
-0.7425267566737427 0.6661335240050151 0.07014373685677079
-0.7700082924671595 0.6254995373957445 0.125847360915985
-0.7967503875933505 0.5790877621119004 0.1727604805563936
-0.8226170756819946 0.5274194285014185 0.2124379750318671
-0.8472612724819105 0.4707221419507704 0.2461077024995599
-0.8701714982219285 0.4091068752901924 0.2746509207566918
-0.8907094925314826 0.3427243664147445 0.2986245277600617
-0.9081562410419901 0.2718905472632614 0.3183202352433258
-0.9217776087264913 0.1971589405265766 0.333847857894743
-0.9309074897382938 0.1193306656212574 0.345212163446677
-0.9350333410217037 0.03941769898778243 0.3523618824224581
-0.9338674478276169 -0.04141771180363996 0.355212841880587
-0.9273912002793684 -0.1219362451382046 0.3536624291128296
-0.9158652356989149 -0.2009039661827573 0.3476038929733208
-0.8998011818731527 -0.2771823628157806 0.3369388235919659
-0.8798981715903622 -0.3498166386112393 0.3215704075045933
-0.8569545359437111 -0.4181032305434955 0.3013612648211293
-0.831775272896817 -0.4816073810997494 0.2760511290823957
-0.8050919232813 -0.5401137594152654 0.2451614202062087
-0.7774994046101482 -0.5935193928563676 0.2079168250389397
-0.7493968356870467 -0.6416927483997922 0.1632017135736067
-0.7209164941614223 -0.6843080780807437 0.1095530132832599
-0.6918176885128733 -0.7206565539971441 0.04519310834259365
-0.6613270373190272 -0.7494179879092671 -0.03192536779526518
-0.6279365522453522 -0.7683274395553328 -0.1239702866842115
-0.589063209937983 -0.773909473122526 -0.2325266911749561
-0.5386536444792874 -0.7627783620112877 -0.3578008129344568
-0.4506985621142223 -0.7389806686472367 -0.5007777725437249
0 0 0
0 0 0
0 0 0
0 0 0
0 0 0
-0.4076700187358877 0.684397101874076 -0.6044880170609224
-0.4834008636217593 0.745743501123771 -0.4584650865457441
-0.5431989672154229 0.7766457650637484 -0.3189925353744855
-0.5862097427190556 0.7857529347642644 -0.1973587166826025
-0.6205208781411718 0.7785505441975723 -0.09387699356377203
-0.6506990469787737 0.7593048617915409 -0.006846686837007004
-0.6790516162248756 0.7311062417002417 0.06612537976700826
-0.7067383492990766 0.695885509804554 0.1275314191643429
-0.7342560089507914 0.6546887370095171 0.1795849964572162
-0.7616699575747682 0.6079769825830728 0.2241045835703324
-0.7887432423584081 0.5558548088411345 0.2625062458726096
-0.8150097814266312 0.4982467526332767 0.2958195897321684
-0.8398176924622928 0.4350482011976339 0.324714191346809
-0.8623650775004844 0.3662636568857358 0.3495388487025023
-0.8817480749204316 0.2921275702288151 0.3703806354094675
-0.8970346181737213 0.2131912132053395 0.3871413183967331
-0.9073648666514343 0.1303569949316913 0.3996198851896676
-0.9120648818197853 0.0448538586338982 0.4075853072875797
-0.9107496016341901 -0.04184289029373354 0.4108337080316437
-0.9033904580296787 -0.1281350209785976 0.4092274388891108
-0.8903285609655389 -0.2124494805393006 0.4027161180628523
-0.8722293579176429 -0.293384735269937 0.3913327794820732
-0.8499891426260736 -0.3698285753558136 0.3751603420779983
-0.824618305769765 -0.4410231426748637 0.3542643609151058
-0.7971271145069045 -0.5065652181467964 0.3286031696161559
-0.7684339049960511 -0.5663439725494472 0.2979326071604614
-0.7392962123661381 -0.6204363356306039 0.2617247863889661
-0.7102543438404936 -0.6689786486749244 0.2191034793716911
-0.6815656876849333 -0.7120231734782262 0.1687934056785366
-0.653109230596687 -0.7493667488365158 0.1090770766366288
-0.6242340247305539 -0.7803237753846749 0.0377715228459332
-0.5935139292623116 -0.8034091734040066 -0.04769607805576349
-0.5582811405409283 -0.8159884846327342 -0.1499498618308587
-0.5136316503525267 -0.8140697094800591 -0.2710591003142879
-0.4514675291483724 -0.7919413649919049 -0.4111033258676233
-0.3733375605900693 -0.7399371620778306 -0.559564171502127
0 0 0
0 0 0
0 0 0
0 0 0
-0.4395515766794555 0.7275777877633272 -0.5267114714832279
-0.4769791586532098 0.7920605562881912 -0.3809605719532096
-0.5172827319782368 0.8197124093020797 -0.2459474359153001
-0.5520720128545056 0.8236954697159853 -0.1293919077536787
-0.5824618361977901 0.8122466873351523 -0.03152028372602445
-0.610571749462574 0.7903756702319686 0.05008431554466622
-0.6378990762678973 0.7609611861965653 0.118418079695961
-0.6652848384250476 0.7254815949169294 0.1762740457314856
-0.6930830181916374 0.6845256352442849 0.2259658925319883
-0.7212889023444179 0.6381452987794132 0.2692821884204698
-0.7496149586288536 0.586094445591114 0.3075235188519837
-0.7775317107891091 0.5280014134208726 0.341553723655476
-0.8042907679459211 0.4635160100172067 0.3718457597642988
-0.8289493225763991 0.3924513594272224 0.3985284821488341
-0.8504160605440796 0.3149226076401526 0.4214454593014547
-0.867535016856975 0.2314642349699975 0.4402355079462826
-0.879212254804036 0.1430979563385947 0.4544323776912467
-0.8845708535228991 0.05132197324324374 0.4635735757786337
-0.8831009273785179 -0.04199313495704132 0.4673000413863462
-0.8747607934077193 -0.134793162351153 0.4654292187863502
-0.85999565728163 -0.2250739577257748 0.4579838239614937
-0.839665695015232 -0.3111033302640238 0.4451698984805918
-0.8149086280915779 -0.3915781320461907 0.4273060897823916
-0.7869775590041894 -0.465689995856152 0.4047210760305225
-0.7570952499728039 -0.5331004022568995 0.3776383767338121
-0.7263454253859215 -0.5938499525566172 0.3460701617727932
-0.6956039046877732 -0.6482315514475937 0.309727401905237
-0.6654928821166038 -0.6966524526804313 0.2679451138320584
-0.636339563502999 -0.7394885265758468 0.2196102888835015
-0.6081151561732482 -0.7769159289311357 0.1630876948315094
-0.5803371586892099 -0.8086797567854402 0.09615525575846173
-0.5519170186162216 -0.8337452944825789 0.01601213570821413
-0.5209793766396499 -0.8497643258939923 -0.0805051523449901
-0.4849306870985099 -0.8522523213489516 -0.1962350872435652
-0.4422528523060293 -0.8332526180370019 -0.3318169512873972
-0.401600048868679 -0.7790757997041639 -0.4814128156416187
0 0 0
0 0 0
0 0 0
-0.3260156501965805 0.7193653834860501 -0.6133736551799956
-0.4059435679471007 0.7909361976475394 -0.4578534163826118
-0.4490880137761132 0.8370562548012798 -0.3125008514879277
-0.4827002547374138 0.856497276802292 -0.1827919005500327
-0.5119198845332548 0.8560056837703719 -0.07205762397051735
-0.5388963211713993 0.8421235052900307 0.02046354969117777
-0.5650737202453486 0.8192524732140707 0.09755550123242365
-0.591402956239496 0.7898500273743718 0.1624176025185958
-0.618427785594971 0.7550189316387639 0.2179300045224602
-0.6463669242582278 0.7150054601929116 0.2664150729956553
-0.6751669005682229 0.6695433762754456 0.3096147988432978
-0.7045246518827776 0.6180825089790791 0.3487391962248825
-0.7338887780688356 0.5599567253418291 0.3845201258309976
-0.7624528077309406 0.4945345227338163 0.4172545048380438
-0.7891578363423609 0.4213800317713569 0.4468431247807365
-0.8127274963628385 0.3404286833216169 0.4728449304240261
-0.8317583424196054 0.2521585056946701 0.494564604294748
-0.8448776444848158 0.1577120160153965 0.5111836126619745
-0.8509551948658161 0.05891290991088918 0.5219238693302999
-0.8493207592761794 -0.0418667588720336 0.5262142361853053
-0.8399163081834996 -0.1419849207867963 0.5238137813350914
-0.823321661492682 -0.238886635314379 0.5148539765653009
-0.8006432424475998 -0.3304317998447445 0.4997851778257893
-0.7733099819352157 -0.4151047448720474 0.4792491237593117
-0.7428490326074871 -0.4920725591734592 0.4539161940960055
-0.7106984822067453 -0.5611169960567628 0.4243293345094855
-0.6780855209801898 -0.6224899642544515 0.3907764970408474
-0.6459639703816111 -0.6767440867162619 0.3531968149111724
-0.614992423252982 -0.7245667645543519 0.311106610416209
-0.5855248776723809 -0.7666240921838898 0.2635301100632889
-0.5575941658931176 -0.8033927290163141 0.2089231177387434
-0.5308675854522769 -0.8349400971299066 0.1451021740732053
-0.5045669886391282 -0.8605922505087525 0.06923245149437866
-0.4773596422615563 -0.8784328260087528 -0.02198959140581508
-0.4472767767506325 -0.8846482737764578 -0.1316849144127655
-0.4116200574247049 -0.8731081084574774 -0.2612492282696496
-0.3651445511828089 -0.836756300270775 -0.4080543477267079
-0.2823313161607627 -0.7748791572904868 -0.5655539934539545
0 0 0
0 0 0
-0.3588341037431603 0.7520393621108277 -0.5528787243390558
-0.3876129374610863 0.8314544032918804 -0.3980449546964897
-0.4161799469902783 0.8729226485735005 -0.2545590330956525
-0.4421722506310284 0.8875239954191081 -0.1295563905301216
-0.4665840197441036 0.8841477361694047 -0.02412743554441836
-0.4904909644354552 0.8691141069224944 0.06371250234837343
-0.5147175297029518 0.8463157564947266 0.1371696209998742
-0.5398229135060352 0.8177856980893159 0.199543915102479
-0.5661361612539133 0.784296452254225 0.253710310988968
-0.593784227636872 0.7458168641670841 0.301956116238204
-0.6226972448180926 0.7018172921010312 0.3459777880210404
-0.6525907052828898 0.6514721530747432 0.3869229964043732
-0.68293139031133 0.5938141701514222 0.4254285456511009
-0.7128970835075594 0.527888449679442 0.4616400470295552
-0.7413484361901177 0.4529384164789904 0.4952265007407934
-0.7668409739711275 0.368636177944148 0.5254163006128968
-0.7877121686012107 0.275334588019214 0.5510901959551332
-0.8022703324447995 0.1742780104481784 0.5709548920476422
-0.8090776213891836 0.06767245082580414 0.5837926361015949
-0.8072625669292567 -0.04147509856004331 0.5887333558022861
-0.7967467505815599 -0.1497628304629601 0.5854619629399059
-0.7782815993893414 -0.2539333656019112 0.5742783278916715
-0.7532762223452319 -0.3513548689651967 0.5559898280578031
-0.7234996214432707 -0.440293484569811 0.5316859460403449
-0.6907733329478297 -0.5199458169402508 0.5024823876858585
-0.6567407259123498 -0.5902934095117618 0.4693030040550546
-0.6227378170838055 -0.6518757573783382 0.4327304104360056
-0.5897518334821765 -0.7055562964355698 0.3929161328636589
-0.5584306963509154 -0.7523209692745066 0.3495258453432279
-0.5291129884413147 -0.793109126749964 0.3016908326890456
-0.5018498739292497 -0.8286537744177056 0.247950854365307
-0.4764052896840004 -0.8592848465872527 0.186192245774695
-0.4522215511429467 -0.8846386111977946 0.1136230445812121
-0.4283584294098267 -0.9032088654392082 0.02688496504673249
-0.4034424992245766 -0.9117163229534373 -0.07750804009707774
-0.3757529100840848 -0.9044034926117891 -0.2021486411404699
-0.343874427481086 -0.87255387921099 -0.3469871841990818
-0.3108965154242486 -0.8041907009679079 -0.5065774108404403
0 0 0
0 0 0
-0.3434815653891826 0.7961432804516534 -0.4981729531292078
-0.3567652158913001 0.8684103221328763 -0.3443575077490067
-0.3757566426151102 0.903802637864675 -0.2048114677440568
-0.3958858248462596 0.9143688690216187 -0.08487629262592647
-0.4163947249197972 0.9090488676354361 0.01567128934379716
-0.4375362050887719 0.8936754789284607 0.09952993317842602
-0.4597015572585446 0.8716216399126666 0.1701475685692326
-0.483208251460892 0.8445234469693303 0.2308461245920044
-0.5082643213698762 0.8128657426112442 0.2844585455061756
-0.5349599611875294 0.7763854253361139 0.333231918116944
-0.5632457549275734 0.7343276285648271 0.3788365788600992
-0.5928908461774618 0.6856107293278818 0.4223959899779621
-0.623422216524539 0.6289580942657673 0.4644959155915201
-0.6540529827459144 0.5630471070836495 0.5051659637840871
-0.6836171217403021 0.4867199337650801 0.5438486342165624
-0.7105452283523118 0.3992790516418633 0.5793977195206543
-0.7329322145536595 0.3008515175362773 0.6101628743750201
-0.748748001293843 0.1927352686646544 0.6342156942013011
-0.7562020368532404 0.07756978824120828 0.6497241009930476
-0.7541809700330814 -0.04084367274431996 0.6553951928697025
-0.7425826890250281 -0.1581270223126174 0.650820094015929
-0.7223673994744327 -0.2701380470796846 0.6365616825544235
-0.6952980670351304 -0.3736693191545976 0.6139477485093907
-0.6635136682327257 -0.4667903588207851 0.5846848492823414
-0.6291245293664058 -0.5488143763443317 0.5504589965358725
-0.5939406894386621 -0.6200284447990614 0.5126394298814551
-0.5593530194414069 -0.6813471836071247 0.472112502516529
-0.5263248279899636 -0.7339998004098738 0.4292161092498743
-0.4954437981076561 -0.7792894777621111 0.3837230156843808
-0.4669878580240682 -0.8184193045452168 0.334831573191382
-0.4409809960949539 -0.8523477179973106 0.2811389846817379
-0.4172200797675397 -0.8816258810738623 0.2205973954050749
-0.3952707517124952 -0.906154709270274 0.1504814796177372
-0.3744390459788192 -0.9247955845654328 0.06744277288746556
-0.3537811883995495 -0.9347736290860896 -0.03220455091789511
-0.3323547292943537 -0.9308694581963706 -0.1517312944414284
-0.3103510840383081 -0.9045180884103636 -0.2924538123784811
-0.2928334969053482 -0.8431441980204637 -0.4509505565298859
0 0 0
0 0 0
-0.2968841145422379 0.8411550148024659 -0.4520155568176101
-0.3100760796413116 0.9025156450765037 -0.298861732622992
-0.3266230536456246 0.9309103806094542 -0.1634724567037768
-0.3438183871112543 0.9377947419319037 -0.04826943845839778
-0.3615748223024967 0.93110144230974 0.04810147612744381
-0.3802464774781013 0.9158768726727424 0.1287717766775477
-0.400170118257931 0.8949498526804958 0.1973034151772126
-0.4215996696152109 0.8695987310054546 0.2570053805157538
-0.4447130051947981 0.8400666495649718 0.3106740531478186
-0.4696113705208106 0.8059010639429257 0.3605393679103923
-0.4962956209972051 0.7661564923073936 0.4082828503307834
-0.5246165383724485 0.719517393197166 0.455051874573508
-0.5542001353742806 0.6643969073294982 0.5014368948154161
-0.5843512338279236 0.5990702581247346 0.5474015540297146
-0.6139507778483909 0.5218998597712873 0.5921866080468775
-0.6413842671745802 0.4317000783704734 0.6342406989115827
-0.664569233531826 0.3282405216156189 0.6712718479218587
-0.6811665940902685 0.2127880573297254 0.7005235997118898
-0.6890223695476179 0.08844739463391027 0.7193227597160112
-0.6867569402724509 -0.04000887443401416 0.7257852264645126
-0.6742422133784127 -0.1669709904853173 0.7193873268517664
-0.6526730639448526 -0.2872078371462882 0.7010916700992738
-0.6241862017094683 -0.3968697642385031 0.6729680347748925
-0.591275027453793 -0.493889732430483 0.6375474681223834
-0.5562819347442587 -0.5778214141018216 0.597220915978798
-0.521105931926622 -0.6493803216676538 0.5538535957648919
-0.487113116454061 -0.709945016696887 0.5086245029937788
-0.4551782840138356 -0.7611552742770253 0.4620123139078496
-0.4257792498369966 -0.8046413087734168 0.4138410257860454
-0.3990967302267179 -0.8418540510490609 0.3633229371435653
-0.3750889391184132 -0.8739474919375613 0.3090696832221964
-0.3535327338924996 -0.9016537255130512 0.2490685956417022
-0.3340228058603208 -0.9250916517939284 0.1806493867866118
-0.3159376430004223 -0.9434417838505013 0.1005037622197348
-0.2984010692238183 -0.9544280872063994 0.004881417582519892
-0.2803726241749368 -0.9535868935295787 -0.1098327278267585
-0.2613263153732488 -0.9333951907677839 -0.2459308332540129
-0.2442764797096957 -0.8821454961153689 -0.4026764521846384
0 0 0
-0.1294715803247576 0.8013238037193012 -0.5840524561039359
-0.2174852405755205 0.8825701952295295 -0.4168573144666138
-0.2512074784734221 0.9311720997762383 -0.2642221098949438
-0.2710379771803753 0.9535173611014667 -0.1316930408338458
-0.2872102433595874 0.9576615004517461 -0.01986772915650581
-0.3028345869315056 0.9502043935168255 0.07350390125255418
-0.3190628668587077 0.9354749478808717 0.1519391617693809
-0.3364169445702488 0.9158637573415002 0.2191283126260213
-0.3551875788843051 0.8923744789477001 0.2784054114580494