# OOMMF: rectangular mesh v1.0
# Segment count: 1
# Begin: Segment
# Begin: Header
# Title: 
# Desc: time = 4.4e-10
# Desc: stepsize = 7.806895730414667e-14
# Desc: step = 2814
# meshunit: m
# valueunit: (none)
# valuemultiplier: 384000.0000000001
# xmin: 0
# ymin: 0
# zmin: 0
# xmax: 9.357999999999999e-08
# ymax: 9.357999999999999e-08
# zmax: 2.3395e-08
# ValueRangeMaxMag: 1
# ValueRangeMinMag: 0
# meshtype: rectangular
# xbase: 1.16975e-09
# ybase: 1.16975e-09
# zbase: 1.16975e-09
# xstepsize: 2.3395e-09
# ystepsize: 2.3395e-09
# zstepsize: 2.3395e-09
# xnodes: 40
# ynodes: 40
# znodes: 10
# End: Header
# Begin: Data Text
0 0 0
0 0 0
0 0 0
0 0 0
0 0 0
0 0 0
0 0 0
0 0 0
0 0 0
0 0 0
0 0 0
0 0 0
0 0 0
0 0 0
0 0 0
0 0 0
-0.8362033942940195 0.02372142908556495 -0.5479061755203152
-0.8459558554365157 0.04243504815194462 -0.5315618095207878
-0.8563804292683972 0.02338005424144562 -0.5158157940871355
-0.8618161684487071 -0.01137578797720361 -0.5070931701850132
-0.860490666343255 -0.05065083150206708 -0.5069421134649298
-0.8524912440852547 -0.08581077630549219 -0.5156502588264867
-0.8398189330952155 -0.1055767216568922 -0.5325013760160594
-0.8285964951173074 -0.08727327708940841 -0.5530020102905491
0 0 0
0 0 0
0 0 0
0 0 0
0 0 0
0 0 0
0 0 0
0 0 0
0 0 0
0 0 0
0 0 0
0 0 0
0 0 0
0 0 0
0 0 0
0 0 0
0 0 0
0 0 0
0 0 0
0 0 0
0 0 0
0 0 0
0 0 0
0 0 0
0 0 0
0 0 0
0 0 0
0 0 0
-0.7812645038233248 0.2339561811149777 -0.5786970540652416
-0.8091809018464289 0.2637981099455982 -0.5250112620469484
-0.8461704659572019 0.2466737325497659 -0.4723850253889695
-0.8827924247057416 0.1985939456215058 -0.4257205417226652
-0.9148331074849031 0.1168537390886016 -0.386556062053783
-0.9279887648208908 0.07623625864851179 -0.3647257671641446
-0.9361684062498826 0.03733218468283584 -0.3495640472450804
-0.9398792678417509 -0.005482213466157283 -0.3414628928840803
-0.9386162046742716 -0.05011879545900068 -0.3413029836737497
-0.9324142487653847 -0.09319683429668328 -0.3491676084294753
-0.9218050234882348 -0.1325826389514148 -0.3642764644065451
-0.9060566798475903 -0.1736888952052858 -0.385867154064618
-0.8700612789004185 -0.2551519545653191 -0.4217710884350238
-0.8298167841187489 -0.3045547426439678 -0.4676008057391302
-0.7897625507669334 -0.323601130019258 -0.5211117174429737
-0.7598228288661082 -0.2957179489791061 -0.5789820060981991
0 0 0
0 0 0
0 0 0
0 0 0
0 0 0
0 0 0
0 0 0
0 0 0
0 0 0
0 0 0
0 0 0
0 0 0
0 0 0
0 0 0
0 0 0
0 0 0
0 0 0
0 0 0
0 0 0
0 0 0
0 0 0
0 0 0
-0.7546104656190427 0.3277526172233218 -0.5684551583735288
-0.7924179152138949 0.3563578105088347 -0.4950585405155767
-0.8477473965117397 0.3192134945767201 -0.4235883574741929
-0.8818049013920117 0.2980717298623968 -0.3654768935758619
-0.9119063280191795 0.2648909667352573 -0.3134639128522406
-0.9386173181962528 0.2161139865641342 -0.2688722276350439
-0.9597087958027021 0.1550534599273409 -0.2343447286018765
-0.9719176867192112 0.1016367070802156 -0.2122404061819215
-0.9788414972096464 0.05105449025787291 -0.1981483342470629
-0.9815964829856583 0.0002839467387426072 -0.1909666566823519
-0.9803236682240267 -0.05088791476228009 -0.1907247379102534
-0.9750229521997794 -0.1017552384088314 -0.1974236919419447
-0.9655140260074574 -0.1525274213840438 -0.2109930124644047
-0.9505228430965391 -0.2061983685735853 -0.2323543792340987
-0.9262054954260429 -0.267563267648062 -0.2656186703680474
-0.8963715865860251 -0.3172061432101235 -0.3096744120378855
-0.8633962397231041 -0.3516716360336528 -0.3617651083803101
-0.8266339298672842 -0.3743556092402421 -0.4201597598801393
-0.7681308543143596 -0.4124971059027607 -0.4897153543356977
-0.7279342262745463 -0.3863644989618059 -0.5664223125549253
0 0 0
0 0 0
0 0 0
0 0 0
0 0 0
0 0 0
0 0 0
0 0 0
0 0 0
0 0 0
0 0 0
0 0 0
0 0 0
0 0 0
0 0 0
0 0 0
0 0 0
0 0 0
0 0 0
-0.7587473317948554 0.4083838110146297 -0.5074693580851499
-0.8100824567360675 0.4082099019367635 -0.4208694444233684
-0.8500062740224765 0.3983648274736462 -0.3446662129572869
-0.8881463874023358 0.3670224963621774 -0.2765691264553128
-0.9177296873446433 0.3307349940225783 -0.2199695085578622
-0.942341348029513 0.2871429399388967 -0.1718770369687787
-0.9629629017562421 0.2350772289691662 -0.13206493198944
-0.9789922018938796 0.1767587899473345 -0.1016395533605228
-0.9896319660244824 0.1186143666588345 -0.08098891186230577
-0.9957927526169179 0.06137088501569935 -0.0680471035975129
-0.9980906229163085 0.004401624484918186 -0.06160952968841908
-0.9967353178203661 -0.05254765887621083 -0.06129804039414743
-0.9917235646660304 -0.1094605133105156 -0.06710266247996161
-0.9828248625757687 -0.1665991803157607 -0.07937255584291909
-0.9693785254203772 -0.22461076665999 -0.09927375259466245
-0.9504662507625021 -0.2828414993932406 -0.1288976042541336
-0.9270716264966968 -0.335051779001907 -0.1681621382250645
-0.899821801873682 -0.3790865065701778 -0.2159030926346774
-0.867601484412162 -0.4161943601524155 -0.2721211473280492
-0.8265936875279487 -0.4488091676244849 -0.3395779833781403
-0.7838751342645649 -0.4606685044040681 -0.4163223545905611
-0.7299140036399688 -0.4621459458089858 -0.5036334699586481
0 0 0
0 0 0
0 0 0
0 0 0
0 0 0
0 0 0
0 0 0
0 0 0
0 0 0
0 0 0
0 0 0
0 0 0
0 0 0
0 0 0
0 0 0
0 0 0
-0.6538970926676897 0.497848629546936 -0.5697063579239569
-0.7055263140348335 0.5336917409418969 -0.46626789065389
-0.7859000128303714 0.4988828480251075 -0.365345143363887
-0.8356598143140771 0.4721964787000127 -0.2805408352519644
-0.872464606397083 0.4421575808749147 -0.2080917688406391
-0.9033402104391748 0.4033403354297284 -0.1459213418905574
-0.9287413119865647 0.3585800477640984 -0.09412717330808677
-0.9499339070739483 0.3082371211940678 -0.05114146369841442
-0.9674843682648065 0.2524062571433742 -0.01628123208238123
-0.9812587605457711 0.1924154268931478 0.01037055185146871
-0.9909746428074278 0.1308672284312301 0.02903490718804133
-0.996781372173449 0.06898792978284003 0.04083578862093236
-0.9988838041354361 0.00707703597435947 0.0467018350574872
-0.9973884091514107 -0.0547841839793695 0.04706436524730742
-0.9923034966164566 -0.1165158435378153 0.04192646905505847
-0.983538361023404 -0.1780443443095195 0.03086266117477102
-0.9709097132066199 -0.2390958354412002 0.01294257608487598
-0.9543175487786936 -0.2985117631272826 -0.01299012577561521
-0.9341251372581604 -0.3538073638752326 -0.04722898696861057
-0.9104573047772055 -0.4037694174354309 -0.08965352040873183
-0.8826405644733407 -0.4484482699760728 -0.1408537649537603
-0.8492509890560326 -0.4876651858091409 -0.2023744651310681
-0.8097347627904801 -0.5187275025226655 -0.2743198717833656
-0.756784084708687 -0.5467842474785173 -0.3581966440950914
-0.6724563009348733 -0.5828099841422292 -0.4562181996776554
-0.617506454493821 -0.5502221363189613 -0.5620866297672168
0 0 0
0 0 0
0 0 0
0 0 0
0 0 0
0 0 0
0 0 0
0 0 0
0 0 0
0 0 0
0 0 0
0 0 0
0 0 0
-0.6327958399629738 0.5438561895102482 -0.5511713617895497
-0.6962264975144642 0.5678291337964345 -0.439134078580485
-0.7478491857655843 0.5733873434877119 -0.3345871331624342
-0.7998874370787546 0.5506321806315219 -0.2387138237651008
-0.8407110361313386 0.5178862370665992 -0.1581100856491095
-0.8732278017619651 0.4787607545369836 -0.09089194763642938
-0.9004880587436473 0.4334922735966761 -0.03472326010157124
-0.9236443711426442 0.3830706933157097 0.01174391668609303
-0.943359076922146 0.3280018820595493 0.04988403907052089
-0.9598608999580515 0.2686621141607634 0.0805463912685601
-0.9730193358413296 0.205904122514131 0.1041002613377255
-0.9825839523085781 0.1410744678035283 0.1209411890118676
-0.9884234154007523 0.07521452688753966 0.1317646645827122
-0.9905020065774577 0.008936335801328802 0.1372075685539075
-0.9888230875171831 -0.05737273426633806 0.1376127572421557
-0.9834094831727586 -0.1233821370397575 0.1329760755376312
-0.9743063229410839 -0.188709562162425 0.1229466966839258
-0.9616066813319619 -0.2527638294795399 0.106878608358119
-0.9455090726822656 -0.3145569006428445 0.0840627725779324
-0.9263205729019908 -0.3728326421521127 0.05409267200279012
-0.9041684826185008 -0.4268523911567706 0.01662501738659165
-0.8787525051447019 -0.4763869433447851 -0.02914643910535648
-0.849284658854688 -0.5211155817863855 -0.08458202322900939
-0.8144433439859385 -0.5602375835208864 -0.1510492947606154
-0.7709199874278476 -0.5936549351162812 -0.2307730291787374
-0.7156097106066878 -0.6179466928566557 -0.3256449398853512
-0.6605259390179826 -0.6151302946143835 -0.4304883326317145
-0.5939200441763599 -0.593689072542072 -0.5429477564827802
0 0 0
0 0 0
0 0 0
0 0 0
0 0 0
0 0 0
0 0 0
0 0 0
0 0 0
0 0 0
0 0 0
-0.5903565572582333 0.5890039159238769 -0.5518636809290353
-0.6592572942644689 0.6170564749974536 -0.4296756062692035
-0.7128569853969081 0.6254972023853114 -0.3171563781149296
-0.7570984528808755 0.6163848933625771 -0.2164984893244947
-0.7968906622101876 0.5903642609815899 -0.1282002801785918
-0.8310122688317764 0.5536252236919362 -0.05401593045682413
-0.8602792907482324 0.5097689542510538 0.007426654125795528
-0.8858534741663754 0.4602957579647322 0.05823604989209608
-0.9083552022558691 0.4060406625029609 0.1001089752662334
-0.9280124040470544 0.3474681303970419 0.1343833185078793
-0.9447600077502686 0.2849648000394107 0.1619369954464105
-0.9583245765232495 0.2191457869641938 0.1832733752823303
-0.9683555512685466 0.1508988683563857 0.1987889782059121
-0.9745593215469697 0.08111750544477701 0.2089355859979962
-0.9767505965422367 0.01055775508780714 0.214118672613786
-0.9748561509752581 -0.06013888045546057 0.2145665397103373
-0.9689118454723453 -0.1303697886807383 0.210270192615865
-0.9590651735607338 -0.1994964991268549 0.2009854216082542
-0.9455807319114844 -0.26677858166133 0.1862961830111128
-0.9288306133730586 -0.3313635750078531 0.1657464111799777
-0.9092243819712633 -0.3924353139461462 0.1389444046982936
-0.8870508390347781 -0.4494778184646275 0.1054063550075354
-0.8623384882338865 -0.5022354220837034 0.06427995422290514
-0.8347707451110858 -0.5504134580648441 0.01424177965641426
-0.8035807487262352 -0.5933839766999891 -0.04640513411562673
-0.7673917006971015 -0.6298923377052974 -0.119773204855532
-0.7251547542838351 -0.6566301768039426 -0.2073340137314014
-0.6779622995120819 -0.6676257704520445 -0.307640945045687
-0.620817297926176 -0.6619702327271049 -0.4199777298606006
-0.548403627814179 -0.636718926102953 -0.5420723845968811
0 0 0
0 0 0
0 0 0
0 0 0
0 0 0
0 0 0
0 0 0
0 0 0
0 0 0
-0.5474653760236246 0.6120992432523595 -0.5706278809041843
-0.6129370749635671 0.6563458152588959 -0.4399071639871771
-0.6659985931068367 0.6749717872510698 -0.3175829976475599
-0.7096564077852328 0.672891154784006 -0.20881876520755
-0.746954663657058 0.6549385097989091 -0.1145175917636894
-0.7804069511962756 0.6243501072435435 -0.03394015482447093
-0.8106661349508709 0.5845455194571627 0.03357012550425601
-0.8382006298029252 0.5379513463925452 0.08959940352718343
-0.8633759827589912 0.4858801895721977 0.136023357465659
-0.8862988186601025 0.4290044156764598 0.1744408649709273
-0.9068304942511888 0.3676951544367226 0.2060551579065635
-0.9246399933521415 0.3022841473108669 0.2316574561249718
-0.9392686543641119 0.2332675501715613 0.2517154047053692
-0.9502198636534632 0.1613672264821271 0.2665386068393448
-0.9570578476211571 0.08743858310246998 0.2763960392114722
-0.95947831494214 0.01237079927713404 0.281510792832239
-0.9573450083556563 -0.06295326771832603 0.2820060656441495
-0.9507047287215561 -0.1376561513259932 0.2778692188576972
-0.9397885331753885 -0.2108567582514436 0.2689552758577962
-0.9249965312051744 -0.2816774148832998 0.2550279420045095
-0.9068541736461719 -0.349294268164217 0.235815652508781
-0.8859278249549528 -0.4130423942650564 0.2110162778327197
-0.8627116162154879 -0.472508551941897 0.1801786213418007
-0.8375300800161258 -0.5274733336545421 0.1425315661583269
-0.8104676298394946 -0.5777153231660707 0.0968876997429169
-0.7813052690922893 -0.6227576417349948 0.04165328497600592
-0.7494934736845661 -0.6615372139698842 -0.02506087462970367
-0.7143095921799814 -0.6919233612494741 -0.1048993263891508
-0.674798021613394 -0.710772538417625 -0.1986203128031332
-0.6281255296298754 -0.7149880882956018 -0.3070022029604814
-0.5712191102211653 -0.6995712793440138 -0.4293119532870235
-0.5019635872747561 -0.6585959088846094 -0.5606103690181915
0 0 0
0 0 0
0 0 0
0 0 0
0 0 0
0 0 0
0 0 0
0 0 0
-0.581212993405238 0.6676797935924041 -0.4651829205004485
-0.6167605657565528 0.7121857497998763 -0.3352579041717648
-0.6559095899011156 0.7228940550164039 -0.2172712477473497
-0.6916171737154123 0.7130565463153415 -0.1149610663604948
-0.7239283150598236 0.6893104657985381 -0.0279083570861263
-0.7539703294363934 0.6553256529212901 0.04557445504732387
-0.7823821181347816 0.6135020611116145 0.1072074728492967
-0.809414444285123 0.5653646085107109 0.1587800895141939
-0.8350578206568798 0.5117463082663064 0.2019756226270585
-0.8590820920142668 0.4530512395615289 0.2381649292237472
-0.8810699637681505 0.3895006353604585 0.2683374256405329
-0.9004580264985985 0.3213395454575608 0.2931147199295469
-0.9165913609706563 0.2489936947758497 0.3128296932131446
-0.9288007475912949 0.173139695898051 0.3276458712973218
-0.9364954533180336 0.09468021083119485 0.3376565171762729
-0.9392488484905465 0.01467501116662861 0.3429230885438323
-0.9368599096143749 -0.06572783999225278 0.3434725037136124
-0.9293848142473775 -0.1453515344536334 0.3392886654138935
-0.9171370228848396 -0.2230486393529127 0.3303164932859797
-0.9006535892819538 -0.2977674076759281 0.3164769865874777
-0.8806269326510695 -0.3686292937832014 0.2976720498375119
-0.8578086965158861 -0.4350034162147126 0.2737448959583456
-0.8329069859797783 -0.4965334009894446 0.244377851713154
-0.8065017628657182 -0.5530704230389546 0.2089689298771462
-0.7789827153018571 -0.6045229310098651 0.1665471559174361
-0.7504961145408744 -0.6506587890058254 0.115752850282499
-0.7208947643014096 -0.6908667764859283 0.05489841482917791
-0.6896830720399548 -0.7238916465061577 -0.01783659889479232
-0.6558846001782677 -0.7476293377784378 -0.1042389780358959
-0.617974992888905 -0.7586939086948598 -0.2061321446870265
-0.5756578814500266 -0.7506088457048388 -0.3243522225515281
-0.536539381693495 -0.7097282970549383 -0.4565207949825053
0 0 0
0 0 0
0 0 0
0 0 0
0 0 0
0 0 0
0 0 0
-0.4603527431170275 0.7251162543040094 -0.5121345230003059
-0.5458107723104494 0.7530577514789318 -0.3674161452186951
-0.5932138176875857 0.768319862186346 -0.2403787758402837
-0.6298724093642336 0.7658179698052676 -0.1295514764293821
-0.6618521621557113 0.7488221496277501 -0.03488701300892461
-0.6914421936454277 0.7210234931783054 0.04508675117761589
-0.719858044632829 0.684940652348726 0.1125197686520045
-0.7476641759641295 0.6420832761188897 0.1694914349113607
-0.7749771332376412 0.5932646632760737 0.2178244299124721
-0.8016026795744408 0.5388352575615428 0.25901681278956
-0.8271131572476988 0.4788884198896669 0.2941933146815553
-0.850893534178928 0.4134483631090498 0.3240997447313713
-0.8721819213901346 0.3426385983166624 0.3491382060786319
-0.8901238340326343 0.2668194147680104 0.369441416181103
-0.9038527365771603 0.1866695911933364 0.3849736280652098
-0.9125944493113823 0.1031960625038592 0.395628542663132
-0.9157769299194332 0.01768190362699446 0.4012978506190417
-0.9131209391558417 -0.06840704883752016 0.4019087286244157
-0.9046911939293633 -0.1535400428502972 0.3974409375846823
-0.8908955526532237 -0.2362502021067225 0.3879316386520172
-0.8724308023155004 -0.3152585555162121 0.373465578527611
-0.8501853737363241 -0.3895757122483209 0.3541406425575009
-0.8251208697753162 -0.4585597130085244 0.3299977876695006
-0.7981591945934053 -0.5219092013998874 0.3009197327862325
-0.7700951436011148 -0.5795840047989415 0.2665255169457482
-0.7415344419613603 -0.631671887225794 0.2260913494003184
-0.7128421612282201 -0.6782258686584371 0.178509731549818
-0.6840805917614571 -0.7190821614995243 0.1222889569358823
-0.6549129196562475 -0.7536565894793611 0.05559507893390045
-0.624449713447644 -0.7807057510053781 -0.02368724809434549
-0.5910507937594797 -0.7979889408931745 -0.1177820419608942
-0.5519851581454185 -0.8019988754864256 -0.2282765623222965
-0.5009950544661714 -0.7892226016772171 -0.3551501659893771
-0.4115102011316673 -0.7633513034751555 -0.4979499390976521
0 0 0
0 0 0
0 0 0
0 0 0
0 0 0
-0.3847919034538917 0.7225382552321961 -0.5743462899352132
-0.4597242416320323 0.7797141779914528 -0.425087546624181
-0.5184047677760767 0.8067529119263422 -0.2835599334274839
-0.5603927874693565 0.8125250622541178 -0.1605084015285992
-0.5938989157791222 0.8025924370302299 -0.05594155752442716
-0.6235400990975508 0.7811318725664805 0.03210517837046348
-0.6516375094031848 0.7510571916441391 0.1062151176548443
-0.6793479321226483 0.7140937900924592 0.1689865263033346
-0.7071558322042929 0.6710817182673028 0.2226655707262743
-0.7351026148497726 0.6222865440819727 0.2690420091650028
-0.7629090935786906 0.5676356643062885 0.3094502666705888
-0.7900418512767704 0.506904151320963 0.3447927705227402
-0.8157514630638346 0.4398796987913454 0.3755734297050948
-0.8391077407065838 0.3665194603357868 0.401947365561034
-0.8590548097287714 0.2870929525019404 0.4237953167574912
-0.8745022441635345 0.2022878076630349 0.4408236243939567
-0.8844537858581522 0.1132510727870569 0.4526761482492335
-0.8881550451559672 0.0215487099879153 0.4590384176317467
-0.8852258466059343 -0.07095715457674258 0.4597176119262546
-0.8757388583466398 -0.1622953743371696 0.4546885345491805
-0.8602184375232426 -0.2505998193230552 0.4440990546041755
-0.8395580994403631 -0.3343031414043577 0.4282331226227867
-0.8148815612081144 -0.4122685462728439 0.4074342731743386
-0.7873864014819346 -0.4838372106454001 0.3820002727174522
-0.7582073581185761 -0.5487900656922747 0.3520668486130402
-0.7283184324640134 -0.6072431802823294 0.317502725868242
-0.6984714466085169 -0.6595060030525741 0.2778299303714835
-0.6691519353377441 -0.705927144235668 0.2321692366895858
-0.6405278800537094 -0.7467333096417947 0.1792021181384629
-0.612364738553354 -0.7818483256466184 0.1171435984595865
-0.5838810273740347 -0.8106602202488525 0.04373732020509228
-0.5535030002193448 -0.8317028672365018 -0.04364366367257556
-0.5183926011113346 -0.8423050715418481 -0.1476186897649017
-0.4734359389534012 -0.8383891345711437 -0.2701149213582235
-0.4102967826313903 -0.8141671837585999 -0.4108385900240132
-0.3306325959938982 -0.7601935841846275 -0.5592743522019088
0 0 0
0 0 0
0 0 0
0 0 0
-0.4119061828222791 0.7631984971491664 -0.4978567570115246
-0.4486164247181111 0.8230275725348173 -0.3483804218388065
-0.4879256235609818 0.8468772397039458 -0.2114888336155171
-0.5217550245544147 0.847921818287688 -0.09380983116881955
-0.5513400920140477 0.8342656796471879 0.004987855326356092
-0.578849720481878 0.8107119950208936 0.08763025862847616
-0.6058032206452053 0.7799139017922767 0.15727925370831
-0.6330528821338035 0.7431296081815256 0.2168004471076019
-0.660957694006625 0.7007389132470958 0.2685142495189474
-0.6895082776749391 0.6525951584309814 0.3141622100288017
-0.718395263082792 0.5982640109773455 0.3549484739360127
-0.747040452606861 0.5372029635116493 0.3915910343243789
-0.7746106810045006 0.4689236773676333 0.4243687991332054
-0.8000369225775756 0.3931597152306767 0.4531736541683935
-0.8220637177333947 0.3100385475423743 0.4775849066125976
-0.8393509536727616 0.2202328177773815 0.4969783521869536
-0.8506353571381506 0.1250473824296077 0.5106688176636142
-0.8549325054670386 0.02639628060268985 0.5180672229220793
-0.851730089188664 -0.0733570685641227 0.518820388634013
-0.8411080775225288 -0.1716792636114573 0.5128970972545884
-0.8237375174694339 -0.2661978673959629 0.5005948438679076
-0.8007565455852511 -0.3549889941447477 0.4824642667995999
-0.7735696778507304 -0.4367485130156903 0.4591739211763883
-0.7436364010715518 -0.5108237044078113 0.4313514182385755
-0.7123007021242793 -0.5771297353127576 0.3994358250972042
-0.6806829087900068 -0.6359978045305213 0.3635623334636462
-0.6496253272488224 -0.6880015417144775 0.3234823222300748
-0.6196676699810515 -0.7337887993877446 0.2785066905360556
-0.5910235598012209 -0.7739219061262305 0.2274555670407612
-0.5635333033575868 -0.8087043678573678 0.168604452536997
-0.5365715916874665 -0.8379515820734985 0.09963971645131713
-0.5088962664220018 -0.8606461429887948 0.01768633880308065
-0.4784654016134485 -0.8744129466749665 -0.08045407476369872
-0.4425163501075607 -0.8747189068558568 -0.1976008954341476
-0.3994217728314006 -0.8536099682674138 -0.3343834168476737
-0.3579909620195454 -0.7976296077543525 -0.4854168105308646
0 0 0
0 0 0
0 0 0
-0.2950512123931026 0.7543952537560378 -0.5863723929174384
-0.3742923570136494 0.8224212968727699 -0.4284021964594453
-0.4165609287678345 0.8646475235413037 -0.2808231697313617
-0.4491798734267309 0.8808027360828393 -0.149746390331553
-0.4774115743375932 0.8778538203913772 -0.03809013931142261
-0.5034800018383023 0.8622334499485913 0.05532960815560285
-0.5288742914940948 0.8381239979454786 0.1335670163794411
-0.5545771050504387 0.8077492236251516 0.1999635623978495
-0.5811588094161825 0.7719915535032261 0.257455781752207
-0.608861032301522 0.7308902661642194 0.3083628741776816
-0.6376464213994891 0.6839776507354857 0.3543749632392083
-0.6672135943834917 0.6305028803100867 0.3966007279248805
-0.6969873737067851 0.5696030667138643 0.4356155957762288
-0.7260988579634456 0.5004700384472955 0.4714978145026147
-0.7533767402580268 0.4225426583350194 0.5038662413035465
-0.7773794499132483 0.3357296812560873 0.5319462115442319
-0.7965003081015541 0.2406344938085456 0.5546911749646224
-0.8091650435018328 0.1387174505810906 0.5709723296964216
-0.8141049365581936 0.03230932877621474 0.5798182987329817
-0.8106372878302774 -0.07559106180241598 0.580648929177308
-0.7988479205558516 -0.1817261643289104 0.5734261949212757
-0.7795909075265096 -0.2830802235857976 0.558662334435218
-0.7543028520549951 -0.3772999187347939 0.5372820290168073
-0.7247141866395316 -0.462912264873614 0.5103935566922672
-0.6925641173644332 -0.5393227447099044 0.4790468874523642
-0.6593924019299814 -0.6066567621760834 0.4440374231785423
-0.6264272629570087 -0.6655326936228355 0.4057771777014119
-0.5945503698638112 -0.7168344934022162 0.3642226884250803
-0.564303169431624 -0.761516550210062 0.3188329919026404
-0.5359013109200452 -0.8004380217341212 0.2685307399843505
-0.5092310303301554 -0.8341985386335823 0.2116519687848039
-0.4838109092766325 -0.862926194182678 0.1458951248613752
-0.4587104184772917 -0.8859550588177028 0.06832558624489168
-0.4324403714058293 -0.9013316141831119 -0.02442634750537886
-0.4028774678029781 -0.9051688125061904 -0.1354960029033807
-0.3671939937551457 -0.891235242933713 -0.2662110303932408
-0.3200382397964743 -0.8523320015370641 -0.4136492284820507
-0.2355354638560093 -0.7873879783361758 -0.5696869463466787
0 0 0
0 0 0
-0.3238369599510644 0.784709159810162 -0.5285462684379503
-0.3521958260506585 0.8597202770741477 -0.3699177547780648
-0.3799204243145076 0.8973894577996978 -0.2243939219734978
-0.4048762603239766 0.9090766292487562 -0.09825933024293486
-0.4281777832501997 0.903659118649231 0.007998950746166633
-0.4509664479000081 0.8872791716358173 0.09677259141774799
-0.474111411863325 0.8635989197712592 0.1715088187554159
-0.4982101433662646 0.8344243128625626 0.2356325935663526
-0.5236285263732017 0.8003181783926949 0.2920684503715301
-0.550530183803474 0.7610504133205326 0.3431017124789078
-0.5788794556664955 0.7158913425946666 0.3903820710602204
-0.6084175899801374 0.6638045858118893 0.4349615018112142
-0.6386175307247361 0.6036008116204059 0.4773192952963742
-0.6686280307566501 0.5341054737787267 0.5173663106214837
-0.6972279949762895 0.4543803527144661 0.5544471283074878
-0.7228267490620182 0.3640139256136924 0.5873800752491887
-0.7435579301687707 0.2634526169646637 0.6145846752869806
-0.7575075987475606 0.1542828166502912 0.6343335481638637
-0.7630722262452949 0.03931879644405594 0.6451161211590049
-0.7593575426238249 -0.07764193724636043 0.6460246528120559
-0.7464525874342236 -0.1924112117049131 0.6370137049726632
-0.7254314568168189 -0.3011631489014242 0.6189102998047501
-0.6980788220966115 -0.4010430144839134 0.5931698396529126
-0.666481232725914 -0.4904338022710223 0.5614957275119136
-0.6326533416643061 -0.5688838062388129 0.5254721346372488
-0.5982951120736 -0.6368289784598162 0.4863042371424133
-0.5646901348863953 -0.6952573334089015 0.4446822369997791
-0.5327039001610071 -0.7454114458948046 0.4007347390509938
-0.5028308760980394 -0.7885616300512638 0.3540221259375904
-0.4752485613497999 -0.8258380856319053 0.303529671127511
-0.4498529277912898 -0.8580831362089939 0.247640212226006
-0.4262602816246659 -0.8856704397712589 0.1840924887784523
-0.4037709505290913 -0.9082266847296993 0.1099695805836002
-0.3813040131250535 -0.9241920951970498 0.02182248267305194
-0.3573496681513814 -0.9301966737030044 -0.08387707019181825
-0.330065999284565 -0.9203717030145945 -0.2096958855254338
-0.2979533476215054 -0.8859213498260985 -0.3554815952527521
-0.2641256748830281 -0.8149888129416855 -0.515781797514692
0 0 0
0 0 0
-0.3053563766259794 0.8253155603860267 -0.4749860093082228
-0.3181804800871199 0.8932326404583851 -0.31764230214389
-0.336243827600043 0.9251122513254505 -0.1763729311669684
-0.3551987958453151 0.9331413500645447 -0.05550708269902455
-0.3743847975808691 0.9261413899434598 0.04580555833004576
-0.3941069751723753 0.9097326987081306 0.1306373186409679
-0.4147959382327742 0.8870617864165737 0.2026467781757915
-0.4368063644694152 0.8595548520049102 0.2652652565901318
-0.4603852647583104 0.8275051492481157 0.3213730479696043
-0.4856650002259064 0.7904652635163346 0.3732213481697171
-0.5126416196347005 0.7474878229567182 0.4224458833386078
-0.5411296369445063 0.697277499946458 0.4700880812025796
-0.5706929823794755 0.6383165912380009 0.5165863424570163
-0.6005580126136502 0.569023683848205 0.5617313599091296
-0.6295271593516288 0.4879990395650498 0.6046093722580369
-0.655933678362172 0.3943913341694458 0.6435887546580614
-0.6777030825138917 0.2883680253235377 0.676433599048844
-0.6925939836752987 0.1715760427486056 0.7006248891750193
-0.6986429230633701 0.04736583792510365 0.7139009339194914
-0.6947115768138602 -0.07948019051260233 0.7148837138702206
-0.6808875979000975 -0.2035949827200347 0.7035205484113903
-0.6584907530561487 -0.3201529963642935 0.6810961657934291
-0.6296769201087113 -0.4257406318189599 0.6498091186654738
-0.5968793241532465 -0.5186580807923549 0.6121510170106345
-0.5623406478288497 -0.5987157189316707 0.5703617130414361
-0.5278514362002461 -0.6667780052535822 0.5260988053696668
-0.4946783152399687 -0.7242866468620376 0.4803147068419737
-0.46360970104344 -0.7728838682332635 0.4332627047452837
-0.4350470452498668 -0.8141597779387112 0.3845489883046739
-0.4090945393353463 -0.8494919412147642 0.3331742782646518
-0.3856218315131866 -0.8799246569512763 0.277539909111453
-0.3642902410479706 -0.9060274908450832 0.2154223899927149
-0.3445412948907061 -0.9276687257316066 0.1439514897961531
-0.3255636097503615 -0.943635261697081 0.05967268125528753
-0.3063012208562577 -0.951044504525643 -0.04115716843442502
-0.2857153505171421 -0.9445552441465561 -0.1618089281656168
-0.263940489585461 -0.9155233158157227 -0.303566263203227
-0.2460672443030639 -0.851458699425474 -0.4631079727814841
0 0 0
0 0 0
-0.2562401651944928 0.8661711900619053 -0.4290552962589329
-0.2688155278021256 0.923589814527273 -0.2733497146768979
-0.2842757178005936 0.9489336808371794 -0.1367924911746192
-0.3001028419226079 0.9536774312039317 -0.0209198824624692
-0.316270646420971 0.9456096811383045 0.07612627108938437
-0.3331666366105913 0.9295736442577682 0.1577746245469074
-0.3511563099444978 0.9081940057365498 0.2277562160081757
-0.3705230652080005 0.8825637678376811 0.2894716805648227
-0.3914769304290249 0.8527572861192663 0.3457612238414995
-0.4141566921013476 0.8181567664190548 0.398865566263102
-0.4386086542181653 0.7776387710902929 0.4504446582457254
-0.4647382342762141 0.7296806911747793 0.5015819599312979
-0.4922322059672986 0.6724489240537467 0.5527385457406826
-0.5204525862994838 0.6039344394424511 0.6036491516348798
-0.5483151964866062 0.5222080806521571 0.6531838682970086
-0.5741926238380648 0.4258598007179761 0.699246924099351
-0.5959211887349488 0.314632704107165 0.7388397649848971
-0.6110219994521939 0.1901274531317499 0.7684423646254003
-0.6172108971126292 0.05625071461080975 0.7847844070769986
-0.6131055170800398 -0.08104318897404394 0.7858330779796265
-0.5987855849264768 -0.2149374022949291 0.7715294786195561
-0.5758062883741343 -0.3394184585438699 0.743802546559573
-0.5466530895963919 -0.4504920981141272 0.7058521581545599
-0.5140198371456448 -0.5464811000926942 0.6611671606048222
-0.4802645290893091 -0.6276020513186641 0.6127492531853697
-0.4471573567744032 -0.6952656827849378 0.562721892789078
-0.4158601908007476 -0.7514340165908144 0.5122569866945306
-0.3870256791774062 -0.7981689553744247 0.4616681084218038
-0.3609282576560155 -0.8373678684419983 0.4105433542590802
-0.3375773721495099 -0.8706250188113331 0.3578457690575597
-0.3167933028626732 -0.8991465145239682 0.3019562032493414
-0.298239437894883 -0.9236523614474744 0.2406648143718717
-0.2814124685821806 -0.9442014868715491 0.1711448939233605
-0.2655984886299563 -0.9598756630727695 0.08997863234175799
-0.2498320692108119 -0.9682664439485242 -0.006635564567007918
-0.2329908169639505 -0.9647593326903338 -0.1222894484302383
-0.2144910267286092 -0.9417119032715804 -0.2591761769328418
-0.1973291459680517 -0.8874608605524974 -0.4165026160049173
0 0 0
-0.08771587459754726 0.8241557704475788 -0.5595294374575338
-0.1747803352218025 0.902757644469854 -0.3930400358373105
-0.2075940699203537 0.948360658571203 -0.2398265277409834
-0.2261982711747484 0.9682041815134517 -0.106841026845597
-0.2408196221212207 0.9705550530657816 0.005366429899802274
-0.2545865369269724 0.9619385406500783 0.09929722668598538
-0.2686706752228452 0.9465167910610333 0.1786673795487692
-0.2836132309084005 0.9265042904347949 0.2472920036305555
-0.2997230280981873 0.9027439898169608 0.3085764010370973