# OOMMF: rectangular mesh v1.0
# Segment count: 1
# Begin: Segment
# Begin: Header
# Title: 
# Desc: time = 9e-10
# Desc: stepsize = 7.879082029345579e-14
# Desc: step = 5758
# meshunit: m
# valueunit: (none)
# valuemultiplier: 384000.0000000001
# xmin: 0
# ymin: 0
# zmin: 0
# xmax: 9.357999999999999e-08
# ymax: 9.357999999999999e-08
# zmax: 2.3395e-08
# ValueRangeMaxMag: 1
# ValueRangeMinMag: 0
# meshtype: rectangular
# xbase: 1.16975e-09
# ybase: 1.16975e-09
# zbase: 1.16975e-09
# xstepsize: 2.3395e-09
# ystepsize: 2.3395e-09
# zstepsize: 2.3395e-09
# xnodes: 40
# ynodes: 40
# znodes: 10
# End: Header
# Begin: Data Text
0 0 0
0 0 0
0 0 0
0 0 0
0 0 0
0 0 0
0 0 0
0 0 0
0 0 0
0 0 0
0 0 0
0 0 0
0 0 0
0 0 0
0 0 0
0 0 0
-0.8369285100082527 0.0214015339406819 -0.5468936308646781
-0.8464823626215896 0.03992732912876342 -0.5309175248183227
-0.8566245821012859 0.02073144299581138 -0.5155235519460851
-0.8617379668409685 -0.01412215960934762 -0.5071570182032004
-0.8600696228378535 -0.05344798395663573 -0.5073692510218991
-0.8517225547498333 -0.0886048875463788 -0.516447348365068
-0.8387235621008999 -0.1083012313738407 -0.5336793322395826
-0.8272586651489787 -0.08982696508365123 -0.5545937407506417
0 0 0
0 0 0
0 0 0
0 0 0
0 0 0
0 0 0
0 0 0
0 0 0
0 0 0
0 0 0
0 0 0
0 0 0
0 0 0
0 0 0
0 0 0
0 0 0
0 0 0
0 0 0
0 0 0
0 0 0
0 0 0
0 0 0
0 0 0
0 0 0
0 0 0
0 0 0
0 0 0
0 0 0
-0.7831712773626612 0.232615952453655 -0.5766563699277203
-0.810911281274828 0.2620989879300435 -0.523189272087323
-0.8476298442637042 0.2446756741339756 -0.4708051206184705
-0.8839230586123541 0.1963574103313853 -0.4244099361010908
-0.9155744618156801 0.1144481396168816 -0.3855191671099655
-0.9284652697815677 0.07366910136351955 -0.3640399790046852
-0.9363866271253281 0.03463272081278922 -0.3492572965450465
-0.9398262488194585 -0.008276818377495261 -0.3415525088584335
-0.9382787940090432 -0.05296629764515094 -0.3418003452700131
-0.9317829150378525 -0.09605118483985457 -0.3500782328771976
-0.9208718037924042 -0.1353966884739689 -0.3655993130879846
-0.9047924793446439 -0.1764255205783582 -0.3875881899774898
-0.8682768450930072 -0.2578352635794992 -0.4238116293003572
-0.82755697301388 -0.3070588667383918 -0.4699620290762202
-0.787087611282425 -0.3258111668924892 -0.5237749284701205
-0.7568600293943927 -0.2975052346652224 -0.5819394566893619
0 0 0
0 0 0
0 0 0
0 0 0
0 0 0
0 0 0
0 0 0
0 0 0
0 0 0
0 0 0
0 0 0
0 0 0
0 0 0
0 0 0
0 0 0
0 0 0
0 0 0
0 0 0
0 0 0
0 0 0
0 0 0
0 0 0
-0.7568156519591916 0.3270238063015504 -0.5659377165922318
-0.7944302651187058 0.355212550234494 -0.4926505841053362
-0.8494355659283124 0.3177426346175229 -0.4213061090019491
-0.8832566184480961 0.2962763280961031 -0.3634254853164865
-0.9131133906969519 0.2628079087709902 -0.3116984741979562
-0.9395606266028035 0.2137891536407882 -0.2674322843698985
-0.960377131418071 0.1525329935927557 -0.2332583360028718
-0.9723475675747895 0.09895331272464727 -0.2115382937725638
-0.9790439774496389 0.04824129207343916 -0.1978526420310708
-0.98156822957582 -0.002622996871835515 -0.1910940359477501
-0.980055935128716 -0.05384943885723025 -0.1912867009327585
-0.9745042959590184 -0.1047301126487229 -0.1984262600111261
-0.9647271328265703 -0.1554744595722793 -0.2124364648758122
-0.9494320111222397 -0.209079195218134 -0.2342322488115501
-0.9247368368685506 -0.2703409917303775 -0.2679132895706796
-0.8945122769985325 -0.3198030295848507 -0.3123680658570128
-0.8611525926293192 -0.354003558218145 -0.3648255651358516
-0.8240028763838083 -0.3763485906349248 -0.423533939653383
-0.764968604028171 -0.4141318312436991 -0.4932726033360572
-0.7244337651547537 -0.3874595099100839 -0.5701498470436909
0 0 0
0 0 0
0 0 0
0 0 0
0 0 0
0 0 0
0 0 0
0 0 0
0 0 0
0 0 0
0 0 0
0 0 0
0 0 0
0 0 0
0 0 0
0 0 0
0 0 0
0 0 0
0 0 0
-0.76092523520429 0.4078850219997192 -0.5046014221715829
-0.81199340354585 0.4073053028261617 -0.4180539473413862
-0.8516861312127086 0.397071085660361 -0.3420018813287881
-0.8895809490821532 0.3653833086746529 -0.2741181730058369
-0.9189497160382119 0.3287811464091558 -0.2177943460220454
-0.9433546451153639 0.2849094134647074 -0.170025408861327
-0.9637668090990414 0.2326024640250202 -0.1305742371547322
-0.97958533080078 0.1740821078484692 -0.100538546871136
-0.9900245813049876 0.1157724151454195 -0.08029991471527115
-0.9959891175165162 0.05839935261470582 -0.0677878558655888
-0.9980880150807391 0.00133716221326311 -0.06179422423985032
-0.9965264783641848 -0.05566665114281054 -0.06193707992486921
-0.9912976269466151 -0.1125942334312944 -0.0682022976741108
-0.9821654851864029 -0.1697069872311699 -0.08093514807224803
-0.9684595629380477 -0.2276505532899687 -0.1012980776748322
-0.9492512950240531 -0.2857654897371065 -0.1313775618987848
-0.925539387959935 -0.3377980883852645 -0.1710827075364705
-0.8979564399956419 -0.3815880974885684 -0.2192367572406765
-0.865375424639569 -0.4183850005603703 -0.2758248823728269
-0.8239469436911732 -0.4506228534629027 -0.3435847463420417
-0.7808195178876637 -0.4620074653636176 -0.4205591307223771
-0.7263979764466405 -0.4629414412377163 -0.5079677172803121
0 0 0
0 0 0
0 0 0
0 0 0
0 0 0
0 0 0
0 0 0
0 0 0
0 0 0
0 0 0
0 0 0
0 0 0
0 0 0
0 0 0
0 0 0
0 0 0
-0.6565008047444222 0.4979964406747782 -0.5665741244048985
-0.7078859342980526 0.5333214852763336 -0.4631044130275785
-0.7878316883693153 0.4981319255384428 -0.3621958248800181
-0.8373070401676026 0.4710586005516175 -0.2775260624376018
-0.8738895816560758 0.4406520876140815 -0.2052869619686552
-0.9045667334296755 0.4014980680103472 -0.1433817497323988
-0.929790710350097 0.3564320000442688 -0.09189920723871291
-0.9508155342737098 0.3058150457869893 -0.04926436393683271
-0.9681990022257423 0.2497438549693454 -0.01478847504399215
-0.9818045871371732 0.1895484607233489 0.01145136296748978
-0.9913515147356237 0.1278324793401617 0.02968217406341848
-0.9969873095500721 0.06582273049712302 0.04103258151775108
-0.9989140076918356 0.003819714586706048 0.04643506237220697
-0.9972357287200305 -0.05809401392788267 0.04632479800253778
-0.9919585680997829 -0.1198373743422688 0.04070875684884509
-0.9829887035297764 -0.181335624133537 0.02916505019624156
-0.9701384195312461 -0.2423128690268606 0.01076663612213955
-0.9533042090312996 -0.3016065727852889 -0.01563842370315751
-0.9328517337134713 -0.3567266304018041 -0.05033640898936412
-0.9089041218645973 -0.4064570620000661 -0.09319846569455512
-0.8807775865240732 -0.4508461036363106 -0.1448055037378933
-0.8470319736410054 -0.4897102789492861 -0.2066898118467257
-0.8071120630607969 -0.5203495889130082 -0.2789380271311301
-0.7536561161602738 -0.5479227669649183 -0.3630194209897306
-0.6686009178874136 -0.5834333473568276 -0.4610621886384901
-0.6132139186540329 -0.5500938989487888 -0.5668909880288133
0 0 0
0 0 0
0 0 0
0 0 0
0 0 0
0 0 0
0 0 0
0 0 0
0 0 0
0 0 0
0 0 0
0 0 0
0 0 0
-0.6353310899544634 0.5443429646794019 -0.5477637656337925
-0.6984631569859748 0.5677846502919122 -0.435625767403715
-0.7498111439463725 0.5728380450201552 -0.3311190459507247
-0.8015520526224186 0.5496475127599079 -0.2353761216725986
-0.8421400328015591 0.5165097966441585 -0.1549767567204774
-0.8744707985303495 0.477026233151728 -0.08801588153717145
-0.9015737451732244 0.431429458788001 -0.0321466033076207
-0.9245897725093503 0.380707496856761 0.01398407695081403
-0.9441706865279283 0.3253664151415959 0.05175336316884405
-0.9605375228300304 0.2657847383053639 0.08201304847094344
-0.9735558729853878 0.2028185833512086 0.1051360281876172
-0.9829743165746754 0.1378176647923379 0.1215227724574122
-0.9886608856428054 0.07182571804578858 0.1318738769703461
-0.9905793389102777 0.005456569478286811 0.1368312799531043
-0.9887327550479097 -0.06090099612856022 0.1367428527050625
-0.9831436510843135 -0.1269154600670415 0.1316093740148327
-0.9738563816893843 -0.1922037495555378 0.1210845427775649
-0.9609626361889164 -0.256173786039585 0.1045265669339258
-0.9446595577565569 -0.3178362456664468 0.0812307877583604
-0.9252532021290711 -0.3759339169942224 0.05079568882573249
-0.902866720717826 -0.429727503902653 0.01288243027668789
-0.8771903191586236 -0.4789859116381426 -0.03331126576052914
-0.8474220206271303 -0.5233831669409903 -0.0891402239118254
-0.8122245905932193 -0.5621096609167717 -0.1559613527118456
-0.7682603120575696 -0.5950548560847637 -0.2359784125023856
-0.7124088589588815 -0.6187755291582511 -0.3310445018299355
-0.656819224594071 -0.6152480890913687 -0.435956758260566
-0.5896865130462559 -0.5930079810782151 -0.548280357763149
0 0 0
0 0 0
0 0 0
0 0 0
0 0 0
0 0 0
0 0 0
0 0 0
0 0 0
0 0 0
0 0 0
-0.5928818206930832 0.5898344849944963 -0.5482576283125766
-0.6614528494475014 0.6173166467586452 -0.4259111240534137
-0.7147703476100709 0.6252101369842616 -0.3133937376360583
-0.7587682641897894 0.6156004388374958 -0.2128539897711479
-0.7983415588777943 0.5891414829063982 -0.1247520279892175
-0.8322856877395578 0.5520128283639656 -0.050817037551451
-0.8614110992107865 0.5078031647401925 0.01033750629061973
-0.8868664131271243 0.4580046268816776 0.06082538139628444
-0.9092605335762335 0.4034488625906969 0.1023440147489602
-0.928811887514944 0.3446007338913846 0.1362307300591367
-0.9454484838482022 0.2818501197339405 0.1633636262914681
-0.9588929075139672 0.2158169428114186 0.1842483083095815
-0.9687931810845009 0.147393927159725 0.1992857308504715
-0.9748557872733303 0.07747855066913134 0.2089336454616764
-0.9768964031169184 0.006829724875442557 0.2136042425499833
-0.9748432219617742 -0.06390936561762417 0.2135328676844363
-0.9687335780813908 -0.1341354289083148 0.208717372082938
-0.9587160714187074 -0.2032101921784159 0.1989198637599835
-0.9450557978651342 -0.2703940033589775 0.1837297522694657
-0.9281245604309947 -0.3348357276232281 0.1626955310750588
-0.9083303476428269 -0.3957208830899177 0.1354288087431771
-0.8859574968530151 -0.4525348198782848 0.1014472797450345
-0.8610261265762014 -0.5050209663776138 0.05989852145256552
-0.8332074157604897 -0.5528796676495249 0.009459144859678737
-0.8017193305334255 -0.5954722578901498 -0.05156457245282073
-0.7651674361381037 -0.6315261042485187 -0.1252739970086756
-0.7224970714824547 -0.6577081364417474 -0.2131149665265199
-0.6748310064494573 -0.668025883869832 -0.3135993163486513
-0.6171602871446076 -0.6615753216049337 -0.4259475012427156
-0.5441719642815115 -0.6354399707080907 -0.5478073720903195
0 0 0
0 0 0
0 0 0
0 0 0
0 0 0
0 0 0
0 0 0
0 0 0
0 0 0
-0.5499549795000606 0.61333934546142 -0.5668900844361666
-0.6151127540262379 0.6569542485829494 -0.435944279814598
-0.6678918880374848 0.6749754463522962 -0.3135738712253329
-0.7113132161652254 0.6723474017544646 -0.2048962661023941
-0.7484193864082722 0.6539098973971744 -0.1107712423613709
-0.7817153029614442 0.6228926863425321 -0.03042838176572349
-0.8118509626718268 0.5827033495796047 0.03680789042496791
-0.8392870516038325 0.5357565402641455 0.09253201918437676
-0.8643786400678195 0.4833569502180111 0.1386204359769856
-0.8872224002800436 0.4261740598393091 0.1766694177309653
-0.9076713647857326 0.3645804724424541 0.2078792261425893
-0.9253884069198981 0.2989125854205082 0.2330398305343526
-0.9399112805766952 0.2296730088825303 0.2526204537156906
-0.9507422218090569 0.1575902654188705 0.266935452712425
-0.9574462495742752 0.0835253853858097 0.2762610887770953
-0.9597211839007407 0.008371409705887938 0.2808294298532404
-0.9574336057452787 -0.06698683299675255 0.2807733156741547
-0.9506332783011618 -0.1416717658589886 0.2760896248408859
-0.9395538540765463 -0.2148037367200134 0.2666419133989
-0.9245972035205998 -0.2855078422399415 0.2522008787878791
-0.9062893270864635 -0.352963884026045 0.2324997896395025
-0.8851952997786673 -0.4165109523941246 0.2072387699864423
-0.8618053820609085 -0.4757388803123577 0.175965909226744
-0.8364370924374822 -0.5304287578784693 0.1379069367734425
-0.8091648252667167 -0.580355171167278 0.09187034804811947
-0.7797571193727312 -0.6250312262513855 0.03626018475172033
-0.7476511697673276 -0.6633766183847815 -0.03080893581280803
-0.7121153343005425 -0.6932375894212833 -0.1109657391603104
-0.6721936266684096 -0.7114471325258074 -0.204935857982873
-0.6250461257682295 -0.7148911208852292 -0.3134454114221267
-0.5676081961058332 -0.6985682786225553 -0.4356871536042825
-0.4978051118160935 -0.6565882188418006 -0.5666409635103324
0 0 0
0 0 0
0 0 0
0 0 0
0 0 0
0 0 0
0 0 0
0 0 0
-0.5832904937255573 0.6687162269393347 -0.4610757071863741
-0.6186329134265904 0.7125328718176831 -0.3310441435889978
-0.6575647916328988 0.7226313734256269 -0.2131019543452701
-0.6930927255621008 0.7122604667901536 -0.1109391780245825
-0.7252666567009683 0.6880461665293508 -0.02409874274861034
-0.7552062441251441 0.6536434567951671 0.04913003382104345
-0.7835418593802244 0.6114382089307383 0.110478374619429
-0.8105149215916265 0.5629444158753412 0.1617378944839148
-0.8361063494027963 0.5089888384778373 0.2045886966411155
-0.8600771445446398 0.4499743540974496 0.2403963104677795
-0.8820026031328345 0.3861254125483273 0.2701454679451185
-0.9013138582141126 0.3176936027021822 0.2944556058106176
-0.9173528548996528 0.2451130029726413 0.3136612111517612
-0.9294496757963943 0.1690687705125609 0.3279314730234778
-0.9370150626354543 0.09047074268725741 0.3373689628757969
-0.9396255039734627 0.01038353622315216 0.3420469185040524
-0.9370840049162343 -0.07004275848128044 0.3420052334606637
-0.9294509709315816 -0.1496320050084968 0.3372405012916991
-0.917043589846568 -0.2272398554878867 0.3277088683559894
-0.9004016344453886 -0.3018194271833836 0.3133399592499598
-0.8802187184144324 -0.3724981927769738 0.294040990562102
-0.8572457676586038 -0.4386513524415148 0.2696566053940459
-0.8321877962624166 -0.4999274209730483 0.2398667244766113
-0.8056191890552267 -0.5561795656472872 0.2040637473496774
-0.7779215974194735 -0.6073138759839581 0.1612694772908863
-0.7492312505650397 -0.6530900415596069 0.1101178041572599
-0.7193895922791711 -0.6928820544921811 0.04891904622027261
-0.6878900263522445 -0.7254133688828351 -0.02414033742852854
-0.6537467886473703 -0.7485537337464263 -0.1108261883650898
-0.6154291285454568 -0.7588881876581777 -0.2129218315971034
-0.5726571206602833 -0.7499142029535096 -0.3311985965635652
-0.5331311479950678 -0.7079701980979497 -0.4631947513115949
0 0 0
0 0 0
0 0 0
0 0 0
0 0 0
0 0 0
0 0 0
-0.4627883516961407 0.7264813261636042 -0.5079880158723625
-0.5477736825081362 0.7537552320600546 -0.3630386245202686
-0.5949056424310243 0.7683725926352767 -0.2359890579892903
-0.631374896272933 0.7652922840750248 -0.1252735418656869
-0.6632224256579976 0.747788505891532 -0.03079552826031062
-0.6927244853337422 0.7195393990456413 0.04894732515816236
-0.7210844866858784 0.6830471190502915 0.1161197494746673
-0.7488558186145647 0.639807319713151 0.172804966851602
-0.7761448781469137 0.5906238741903155 0.2208224792966832
-0.8027480981897334 0.5358430307042855 0.2616634045838506
-0.8282294961562202 0.4755590776051037 0.2964447088483717
-0.8519670748702149 0.4098016691758422 0.3259059607889714
-0.8731938074725676 0.3387031272055524 0.3504465240414565
-0.8910523647327647 0.2626344172261994 0.3702010888590173
-0.9046759019893326 0.1822849737859212 0.3851411438572262
-0.9132923601949253 0.0986706100451073 0.395172336484866
-0.9163336961444283 0.0130800839254138 0.4002017849970111
-0.9135257571394542 -0.07301887136708844 0.4001736316488915
-0.9049384987056097 -0.1580974066112379 0.3950841980935673
-0.890984414054277 -0.2406936654570599 0.384984848170939
-0.8723636699411146 -0.3195359753353806 0.3699707932166216
-0.8499664621051929 -0.3936433025750654 0.350145632036409
-0.8247541977931452 -0.462381924222514 0.3255510242264186
-0.7976465437886902 -0.5254570777869211 0.2960656187158287
-0.7694339139850784 -0.5828322427667293 0.2613006482982896
-0.7407156853111553 -0.6345944989508101 0.2205223241202468
-0.7118486337014082 -0.6807908708794218 0.1726131884436304
-0.6828850272309465 -0.7212452877955891 0.1160744348099399
-0.6534763733924853 -0.7553546251537152 0.04907157707568318
-0.6227201760830452 -0.7818499384214076 -0.03050009982838843
-0.5889623607059378 -0.7984604729359053 -0.1248367367030174
-0.5494597481565626 -0.8016524649429595 -0.2354725262246176
-0.4979321397376669 -0.7879099771698153 -0.3623002236992537
-0.407664808154767 -0.7609764218680132 -0.5047021790651315
0 0 0
0 0 0
0 0 0
0 0 0
0 0 0
-0.3873016570813551 0.7244915298274812 -0.5701836981449678
-0.4618534199322396 0.7808922666885466 -0.4205932552037863
-0.5201968297960481 0.8072000394648285 -0.2789683755519973
-0.5619554008711692 0.8123269902480816 -0.1559839361800303
-0.5953145895269637 0.801835630853093 -0.05157674467009579
-0.6248690064128983 0.7798871036703363 0.03626058953258463
-0.6529227577110495 0.749374807110176 0.1101329693215612
-0.6806185797369385 0.7120055264676302 0.1726455304849346
-0.708429049204823 0.6686055184360509 0.2260419053175976
-0.736385195774965 0.6194322929669095 0.2721037998140101
-0.76419855598193 0.5644109407998524 0.3121551808645146
-0.7913274452980152 0.5033196778385244 0.3470881389771771
-0.8170154359368812 0.4359540795505892 0.37739875193761
-0.8403271184414797 0.3622828168036321 0.4032387563970813
-0.8602037550533336 0.2825888249697463 0.4244915261749779
-0.8755548233350017 0.1975729569162634 0.4408726324350125
-0.8853866763179706 0.1083929907999158 0.4520413619836859
-0.8889496974374221 0.01662140715367217 0.457703139873594
-0.8858696436109463 -0.07587830124883617 0.4576870742420031
-0.876225236517799 -0.1671385200133133 0.4519889932477181
-0.8605460677618747 -0.255300629299006 0.4407743798578882
-0.8397295415209004 -0.338807234690941 0.4243394334941965
-0.8149015469547382 -0.4165324794739023 0.4030336987326213
-0.7872600660951806 -0.4878278330317363 0.3771546017899973
-0.7579383672639789 -0.5524825889784007 0.3468319770507565
-0.7279072432832547 -0.6106179110965364 0.3119243687560725
-0.6979134974205214 -0.6625441789798683 0.2719410984352082
-0.6684358859262722 -0.7086057630218755 0.2259896878579739
-0.6396335273468527 -0.7490192117301956 0.1727401839552647
-0.6112606943712455 -0.7836912657093789 0.1104009219509221
-0.5825218570118785 -0.8119852864208484 0.03671758079564224
-0.5518262614473511 -0.8324030964187332 -0.05092015563157987
-0.5163160365555647 -0.8422376688286582 -0.1550917779948999
-0.4708542375508744 -0.837380868442572 -0.2776500822019473
-0.4070855275092495 -0.8120385850943009 -0.4181802357961951
-0.3267860052876688 -0.756829380591851 -0.5660567068952387
0 0 0
0 0 0
0 0 0
0 0 0
-0.413977416176036 0.765018615150858 -0.4933246571669366
-0.4504692970280689 0.8240109172963667 -0.3436326826881242
-0.4895557262954504 0.8471109159945047 -0.2067324039774232
-0.5232253975042622 0.8475157849941749 -0.08917498299530904
-0.552716859813008 0.8333157041868885 0.009434512915726228
-0.5801860890146785 0.8092874691921828 0.09185801174836399
-0.6071378751847116 0.7780584995277072 0.1612717328885802
-0.6344115035886688 0.7408666392567784 0.2205417578390326
-0.66235465912157 0.6980779607650193 0.2719806357704536
-0.6909479036324427 0.6495387098709628 0.3173175993308551
-0.7198726336524843 0.5948138117111542 0.3577428136467352
-0.7485421589402456 0.5333659312090233 0.3939611906198464
-0.7761158740652437 0.464717198234223 0.4262418042488043
-0.8015190079632867 0.3886157170757246 0.4544723361385909
-0.8234928347851851 0.3052056953020018 0.4782353339232482
-0.8406970122594595 0.2151760369810608 0.4969183098731045
-0.8518711307221917 0.1198445633571907 0.5098557220192966
-0.8560360400338012 0.02113256183027845 0.5164839910333493
-0.8526859695556186 -0.07859603503469861 0.5164777832586976
-0.8419073935480783 -0.1768136600780753 0.5098321981778664
-0.8243769595495589 -0.2711583236058461 0.4968659699587923
-0.8012369769198983 -0.3597191818095244 0.4781437200827257
-0.7738946302043881 -0.4412056192573559 0.454339853938157
-0.743810467830735 -0.5149773314322279 0.426080199089753
-0.7123280317278092 -0.580959355786698 0.3937956349919198
-0.6805655923779913 -0.6394893285085754 0.35760854742979
-0.6493618526807287 -0.6911429691786817 0.3172547563676968
-0.6192511052790718 -0.7365652734016429 0.2720287974266888
-0.5904395718739939 -0.7763097934750408 0.2207356258513639
-0.5627576214834892 -0.8106643223687171 0.1616391533654945
-0.5355671755895003 -0.8394201181164828 0.09242113249898337
-0.5076103281064236 -0.8615262174997622 0.01021427237939881
-0.4768280842704852 -0.8745652436788202 -0.08815107826875562
-0.4404458818162506 -0.8739593825024524 -0.2054322830692314
-0.3968538728847912 -0.8517266464799321 -0.3421530699151915
-0.3549840294570969 -0.7944385892724591 -0.4928018533905766
0 0 0
0 0 0
0 0 0
-0.2973480638551632 0.7568796512706494 -0.5819942632139986
-0.3761958266083616 0.8240410506271795 -0.4235953811406649
-0.4182324414586583 0.8654301585803512 -0.2758845148447395
-0.4506909973571966 0.8808480302762031 -0.1448598372900783
-0.4788259412999626 0.8772758814379846 -0.03335784443592428
-0.5048542581063763 0.8611264382410554 0.05986180279722397
-0.5302539604830684 0.8365519977759471 0.1378821685682791
-0.5559958719938691 0.8057486356863401 0.2040532440697234
-0.5826393906813943 0.7695777693455791 0.2613070939632056
-0.6104161794669366 0.7280650707649353 0.3119508624399641
-0.6392795260369224 0.6807364013175062 0.3576585515702064
-0.6689189555457969 0.6268413299353253 0.3995214362164218
-0.6987504396713156 0.5655239436355465 0.4380987243008609
-0.7278968880361909 0.4959890753769794 0.4734563945010326
-0.7551803017472991 0.4176934974647387 0.5052077335399092
-0.7791549275155446 0.3305665278295579 0.5325817961655805
-0.7982132410568972 0.2352315486312158 0.5545464275694172
-0.8107835860171209 0.1331644907124964 0.5699975395196886
-0.8156025889463869 0.02670418067601914 0.5779959373891592
-0.811994175358607 -0.0811514463218859 0.5779964549576073
-0.8000507090783158 -0.1871535474513155 0.5699933443292751
-0.7806318488387144 -0.2883003770604227 0.5545239482344004
-0.7551786888662915 -0.3822548653577097 0.5325282769886943
-0.7254250060675086 -0.4675601979775871 0.5051198093909148
-0.6931122558692199 -0.5436361107220747 0.4733446734493336
-0.6597811134949444 -0.6106192957254425 0.437987394753702
-0.6266593371649183 -0.6691355327352424 0.399444256405256
-0.5946264750946236 -0.7200718274474589 0.3576533495341815
-0.5642201593966015 -0.7643805578967282 0.3120544414680867
-0.5356501644482423 -0.8029131419907993 0.2615518834668045
-0.508794645773295 -0.8362544435948369 0.2044664128905192
-0.4831615142721525 -0.8645092751655897 0.1384870545535092
-0.4578072620679027 -0.8869782364472619 0.06068046528162714
-0.4312286296444071 -0.9016642263212294 -0.03230312597171941
-0.401291395788282 -0.9046319469306858 -0.1435487939994216
-0.3651677850927342 -0.8896157620595027 -0.2742923342453387
-0.3175147267778228 -0.8494344925578143 -0.4214800601834591
-0.232368596985755 -0.7831288599044591 -0.5768136821536162
0 0 0
0 0 0
-0.3256613951087288 0.7871008566060036 -0.5238481624153426
-0.3538548327250345 0.8611825387214255 -0.3648991536828465
-0.3814377980538218 0.8980029912984102 -0.2193076237501983
-0.4063025963872468 0.9089664733933208 -0.09326387519233077
-0.4295665502308404 0.9029441333916391 0.01282462071158827
-0.4523654404192583 0.8860495241188749 0.1013989601672782
-0.4755595878039358 0.8619118584441581 0.1759290388795658
-0.4997372080653152 0.8323087087866663 0.2398435660028334
-0.5252554318706184 0.7977818452333962 0.2960588770944169
-0.5522695099985787 0.7580877493966454 0.3468448537035804
-0.5807353698174929 0.7124906693920422 0.3938317867722446
-0.6103854497166427 0.6599553847330422 0.4380507880783615
-0.6406834848563383 0.5993009375387595 0.4799615177256417
-0.6707691022375787 0.5293682030154058 0.5194594470405096
-0.6994131480167284 0.4492403476210413 0.555881604706124
-0.7250192527550591 0.3585307935915305 0.5880499580657436
-0.7457188213890844 0.2577103304729319 0.6144011922136925
-0.7595994993052394 0.1483841501067124 0.6332383000516768
-0.7650623187043287 0.03337537104808688 0.6430907658380408
-0.7612189597143231 -0.08352114580075708 0.643094016124837
-0.748164315372487 -0.1981295356961202 0.6332415370836448
-0.726977825101249 -0.3066417287508943 0.6143892023788504
-0.6994491417295234 -0.4062224837769335 0.5880086664394762
-0.667669617373514 -0.495273223063424 0.5558072656530074
-0.6336581050678914 -0.5733581741911743 0.5193628885181645
-0.5991177251664499 -0.6409256781598235 0.4798668841113625
-0.5653336032473202 -0.6989721027640128 0.4379907722738633
-0.5331710082547233 -0.7487437513415343 0.3938419362937978
-0.503122173676179 -0.7915096938692652 0.3469589065960669
-0.4753604258631139 -0.8283931023992732 0.2963061481315323
-0.4497753978577004 -0.8602225097748023 0.2402484654658309
-0.4259750071499031 -0.8873493427441325 0.1765118614008577
-0.4032492266082464 -0.9093679718595217 0.1021760881808979
-0.3805060367566601 -0.9246753858809116 0.01380531556054215
-0.3562267308588137 -0.9298506610506391 -0.09208835086660448
-0.3285695212783218 -0.9189786831826492 -0.217991397864268
-0.2960557388584232 -0.8832486308611431 -0.3636246080381645
-0.2618680680137239 -0.8108622762988991 -0.5233808210377284
0 0 0
0 0 0
-0.3069154996018911 0.8275619010376044 -0.4700469934540025
-0.3196590273029724 0.8945343298413221 -0.312452298757832
-0.3376509333708047 0.9255780919401375 -0.1711637897286633
-0.3565738177465878 0.9329060712600191 -0.05041204919281414
-0.3757731237644883 0.9253222659471828 0.05072734566926476
-0.3955500924187967 0.9084135849351562 0.135369431899297
-0.4163285165972442 0.8852924985742955 0.2071901499493122
-0.438456022382786 0.8573569241337913 0.2696208839762039
-0.4621728744745921 0.8248793277591021 0.3255308414506738
-0.4876046930459759 0.7873989823628079 0.37715315972898
-0.5147402247840004 0.7439625199976319 0.4261012436359335
-0.5433856842021754 0.6932760381634115 0.4733923669775179
-0.5730955942002253 0.633831144219704 0.5194415467840735
-0.6030862206075654 0.5640638124922841 0.5640204127068023
-0.6321502503191914 0.4825990927987669 0.6062047316304866
-0.6586130145948982 0.3886152016514435 0.6443656741723814
-0.6803953750311257 0.2823089904353966 0.6762867495046759
-0.6952551804430358 0.165349946481837 0.6994852602203816
-0.7012314204740396 0.04109841317219272 0.7117481404083102
-0.6971897433098267 -0.08566803554120227 0.7117495693782248
-0.6832221543466901 -0.2095984917802313 0.6994826374209149
-0.6606533528577089 -0.3258889245888499 0.6762644129245526
-0.6316455484029938 -0.4311477429862409 0.6443101154727829
-0.5986394507332143 -0.5236953515475938 0.6061138397968461
-0.5638853358754446 -0.6033593417715003 0.5639067588544208
-0.5291800351096023 -0.6710177952960854 0.5193299614285509
-0.4957944187082708 -0.7281217278786145 0.4733145294292031
-0.4645186616276457 -0.7763180141797619 0.4260900771663794
-0.4357536785392105 -0.8171962124555403 0.3772387599224993
-0.4096008466217905 -0.8521276927356995 0.325738456003655
-0.3859250440461979 -0.8821438682495781 0.2699704726217487
-0.3643808515235513 -0.9077934167223775 0.2076961906210198
-0.3444015307353759 -0.9289139020131275 0.1360387748911128
-0.3251666371609127 -0.9442505400399765 0.05155168000827204
-0.3056130495492833 -0.950869499610165 -0.04947583911669256
-0.2847030918301774 -0.9433773390926582 -0.1702449576016643
-0.2625952644860294 -0.9130984711299698 -0.3119213187482116
-0.2444561327400515 -0.8475722640495907 -0.471022776922336
0 0 0
0 0 0
-0.257697132491775 0.8682725376362513 -0.4239044565609333
-0.2702015978971455 0.9247506398800335 -0.2680062509257899
-0.2856219621586717 0.9492820134780278 -0.1314676904023604
-0.3014562563953307 0.9533503551995602 -0.01572341314677205
-0.3176767206364519 0.9447199328404271 0.08115263187135703
-0.3346648538572807 0.9281984302092108 0.1626256737106443
-0.3527798231032568 0.9063763730427908 0.2324398132872889
-0.3722994219923975 0.8803188899503404 0.2939928440978224
-0.3934286346607192 0.8500797885085261 0.350111785860318
-0.4163011004394149 0.8150279186839047 0.4030172273473109
-0.4409571412294433 0.7740335469893547 0.4543444373312327
-0.4672947203856961 0.7255752808668384 0.5051496373300312
-0.4949913780061679 0.6678290488650278 0.5558667980654957
-0.5233983051214848 0.5988044984060542 0.606207379437623
-0.5514197571971559 0.5166000096398328 0.6550272371533523
-0.5774174965485289 0.4198394835925002 0.7002312780049259
-0.5992194218977992 0.3083005862265502 0.738841547933542
-0.6143417046371213 0.1836108235388183 0.767379525021975
-0.6204984459819892 0.04968804927627057 0.7826319545565812
-0.6163075597686916 -0.08752025333914615 0.7826271123769043
-0.6018506256960355 -0.2212169072951324 0.7673583936310767
-0.5786878025294194 -0.3454123527520189 0.7387900471514122
-0.5493137175877812 -0.4561355592544971 0.7001391227845204
-0.5164344504795866 -0.5517303892452338 0.6548962024177187
-0.4824205041176198 -0.6324320275922393 0.606052957820082
-0.4490525850787306 -0.699666390032244 0.555714601655703
-0.4174997707810477 -0.7554064434337436 0.5050297482491048
-0.3884185840415761 -0.8017199798923478 0.4542863385713349
-0.3620842329151326 -0.8405049010740976 0.4030465476153851
-0.3385044938328783 -0.8733501141554418 0.350248891161161
-0.3174957974418433 -0.9014498823410496 0.294252490616605
-0.2987159574919706 -0.9255045789397621 0.2328305201239476
-0.2816544604325762 -0.9455441924530498 0.1631470043756362
-0.2655892338134685 -0.9606107869435974 0.08178798744300125
-0.2495470667735512 -0.9682461397189366 -0.01502246265077119
-0.2324024125565257 -0.9637822910153429 -0.1308159553079158
-0.2135836843041897 -0.9395375523561242 -0.2676774131519333
-0.1961452599059195 -0.883855014750901 -0.4246496790486521
0 0 0
-0.08968708863971218 0.8272198221187447 -0.5546743116687164
-0.1762911998844825 0.9047771528509012 -0.3876850738967204
-0.2089443246831818 0.9494369787097309 -0.2343324404371415
-0.2275111656175315 0.9684820399119733 -0.1013962912896447
-0.2421659250389021 0.9701761436709824 0.01067309710222663
-0.2560166961024032 0.9610139860492291 0.1044393122084846
-0.2702244813157583 0.945119778309487 0.1836500322511673
-0.2853238541160343 0.9246733210224456 0.2521300213415538
-0.3016191719337752 0.900489724125066 0.3132796384496532