# OOMMF: rectangular mesh v1.0
# Segment count: 1
# Begin: Segment
# Begin: Header
# Title: 
# Desc: time = 9.199999999999999e-10
# Desc: stepsize = 9.131111407920268e-14
# Desc: step = 5886
# meshunit: m
# valueunit: (none)
# valuemultiplier: 384000.0000000001
# xmin: 0
# ymin: 0
# zmin: 0
# xmax: 9.357999999999999e-08
# ymax: 9.357999999999999e-08
# zmax: 2.3395e-08
# ValueRangeMaxMag: 1
# ValueRangeMinMag: 0
# meshtype: rectangular
# xbase: 1.16975e-09
# ybase: 1.16975e-09
# zbase: 1.16975e-09
# xstepsize: 2.3395e-09
# ystepsize: 2.3395e-09
# zstepsize: 2.3395e-09
# xnodes: 40
# ynodes: 40
# znodes: 10
# End: Header
# Begin: Data Text
0 0 0
0 0 0
0 0 0
0 0 0
0 0 0
0 0 0
0 0 0
0 0 0
0 0 0
0 0 0
0 0 0
0 0 0
0 0 0
0 0 0
0 0 0
0 0 0
-0.8368972859872889 0.02145615364351709 -0.5469392710145572
-0.846454278251797 0.03998823394501441 -0.5309577158071892
-0.8566011431431463 0.02079687702762401 -0.5155598621612743
-0.8617198203741741 -0.01405315817882853 -0.5071897671675771
-0.8600570150113284 -0.05337609069498098 -0.5073981906470738
-0.8517154545964886 -0.08853062608986555 -0.5164717926911716
-0.8387215646364812 -0.1082250263161137 -0.5336979301932965
-0.8272605020162026 -0.08974929255212688 -0.5546035758001318
0 0 0
0 0 0
0 0 0
0 0 0
0 0 0
0 0 0
0 0 0
0 0 0
0 0 0
0 0 0
0 0 0
0 0 0
0 0 0
0 0 0
0 0 0
0 0 0
0 0 0
0 0 0
0 0 0
0 0 0
0 0 0
0 0 0
0 0 0
0 0 0
0 0 0
0 0 0
0 0 0
0 0 0
-0.7831252165558634 0.2326528084007387 -0.5767040540325522
-0.8108680983152737 0.2621429346567231 -0.5232341817428711
-0.8475912632250665 0.2447251056345916 -0.4708488857124685
-0.8838901488217505 0.196411253834374 -0.4244535595127836
-0.9155483983518777 0.1145055318846962 -0.3855640199021601
-0.928443773469293 0.07373113767589801 -0.3640822418672973
-0.9363697145340184 0.03469885670346937 -0.3492960736208645
-0.9398141766524429 -0.008207300863584026 -0.3415874025423431
-0.938271712838639 -0.0528940740798113 -0.3418309667278339
-0.9317808464217135 -0.09597690194970521 -0.3501041109923891
-0.9208747184221328 -0.1353210519340124 -0.3656199746655389
-0.9048006605849906 -0.1763494872717547 -0.3876036931505595
-0.8682925388559508 -0.2577603440660474 -0.4238250488043849
-0.8275789215812815 -0.3069850191713854 -0.4699716231419794
-0.7871149120563763 -0.3257384925159355 -0.5237791039282959
-0.7568911387293519 -0.2974339857428941 -0.5819354158650942
0 0 0
0 0 0
0 0 0
0 0 0
0 0 0
0 0 0
0 0 0
0 0 0
0 0 0
0 0 0
0 0 0
0 0 0
0 0 0
0 0 0
0 0 0
0 0 0
0 0 0
0 0 0
0 0 0
0 0 0
0 0 0
0 0 0
-0.7567675470629321 0.3270495618668881 -0.5659871586838597
-0.7943851925657673 0.3552457290822881 -0.4926993381374101
-0.8493958856116877 0.317781719188406 -0.4213566285886542
-0.8832210306707623 0.2963216150560335 -0.3634750492557356
-0.9130823280537512 0.2628586609585584 -0.311746670479437
-0.9395346444803312 0.2138446871267971 -0.2674791610740153
-0.9603565625487068 0.1525929008464815 -0.2333038349039441
-0.9723316978546912 0.09901755794326715 -0.2115811725224255
-0.9790326500996537 0.04830940319594122 -0.197892070588239
-0.9815615198781147 -0.00255167784210139 -0.1911294630211554
-0.980053939384684 -0.05377562643668561 -0.1913176884083211
-0.9745070839339517 -0.1046545598212801 -0.1984524287358545
-0.9647348089392723 -0.1553979955573719 -0.2124575519901713
-0.9494448783553256 -0.2090027630243017 -0.2342483041839317
-0.9247555359870242 -0.2702655303995632 -0.2679248807766716
-0.8945364136311144 -0.3197289251041325 -0.3123748055457404
-0.8611817506468034 -0.3539312404204327 -0.364826903349191
-0.8240369378901152 -0.3762788140895514 -0.4235296672726035
-0.7650092506948774 -0.4140658076090086 -0.4932649930010858
-0.7244785101341803 -0.3873970017235947 -0.570135467594612
0 0 0
0 0 0
0 0 0
0 0 0
0 0 0
0 0 0
0 0 0
0 0 0
0 0 0
0 0 0
0 0 0
0 0 0
0 0 0
0 0 0
0 0 0
0 0 0
0 0 0
0 0 0
0 0 0
-0.7608798739789175 0.4079060987580275 -0.5046527835748379
-0.8119520320576866 0.4073335053169115 -0.4181068201831083
-0.8516484626094259 0.3971062637849153 -0.3420548368285202
-0.8895475984168241 0.3654248838988028 -0.2741709765427524
-0.9189204157031139 0.3288288134866341 -0.2178460030043887
-0.9433295546021629 0.2849626601853211 -0.1700753765663613
-0.9637462288745541 0.2326607888944836 -0.1306222172567567
-0.9795694461384141 0.1741451112145763 -0.100584195737415
-0.9900132443146942 0.1158397361825503 -0.08034258897154251
-0.9959822859344293 0.05847045086515135 -0.06782693034815945
-0.998085748729316 0.00141134991461716 -0.06182917009679581
-0.9965288604493853 -0.05559015055558254 -0.06196745478601509
-0.9913047297180695 -0.1125162593194674 -0.06822773796146898
-0.9821773866449063 -0.1696284321513558 -0.08095539617131509
-0.9684763820282806 -0.2275723341267807 -0.1013130307191547
-0.9492731459518904 -0.2856884392432062 -0.1313872522636081
-0.9255660645435094 -0.3377228120347058 -0.1710870024192666
-0.8979877295529706 -0.3815151926104979 -0.2192354792903627
-0.8654113386668211 -0.4183152151807354 -0.2758180480954703
-0.8239879070638205 -0.4505570259523126 -0.3435728385329537
-0.7808650774156523 -0.4619461486571828 -0.4205418963830388
-0.7264487089421123 -0.4628854739997485 -0.5079461696246617
0 0 0
0 0 0
0 0 0
0 0 0
0 0 0
0 0 0
0 0 0
0 0 0
0 0 0
0 0 0
0 0 0
0 0 0
0 0 0
0 0 0
0 0 0
0 0 0
-0.6564511820804019 0.4980078109453951 -0.5666216248808529
-0.7078396990078555 0.5333402035043635 -0.4631535251235728
-0.7877916671895324 0.4981565075755062 -0.3622490622029417
-0.8372713573389001 0.4710898834580046 -0.277580611504836
-0.873857610089654 0.4406901033178394 -0.2053414476575774
-0.9045384720499079 0.4015425517654908 -0.1434354618052152
-0.9297661242979038 0.3564826459859355 -0.09195149383734956
-0.9507947742206411 0.3058714684420741 -0.04931472506066286
-0.9681823279780698 0.2498056402111378 -0.01483650597911542
-0.9817922312919006 0.1896151780622426 0.01140608711585527
-0.9913435938499928 0.1279036328201318 0.02964016943259272
-0.9969839291494534 0.0658976876489446 0.04099438717970251
-0.9989152807432717 0.003897710519794566 0.04640118263895489
-0.9972417480105699 -0.05801384541324596 0.046295677608073
-0.9919693837654446 -0.1197559668668717 0.0406847646150786
-0.9830043187969653 -0.18125394614731 0.0291464617499549
-0.9701587908327104 -0.2422318729292312 0.01075361833102224
-0.9533292211366744 -0.3015271220397673 -0.01564579180982292
-0.9328811552811987 -0.3566494495346181 -0.05033805983417467
-0.9089377385588266 -0.4063828254749438 -0.09319434844756971
-0.880815328644022 -0.4507755220238178 -0.144795668339483
-0.8470739692074132 -0.4896440983178356 -0.2066744969117178
-0.8071584699284927 -0.5202885415201458 -0.2789176186359221
-0.7537077953540977 -0.5478677526196594 -0.3629951581797595
-0.6686599765996372 -0.5833852896185182 -0.4610373515784699
-0.613277363175305 -0.5500523009097913 -0.5668627189016658
0 0 0
0 0 0
0 0 0
0 0 0
0 0 0
0 0 0
0 0 0
0 0 0
0 0 0
0 0 0
0 0 0
0 0 0
0 0 0
-0.6352838416238309 0.5443489395642371 -0.5478126254176304
-0.6984198126899149 0.5677981362096863 -0.4356776810429818
-0.7497716219106362 0.5728588441354608 -0.3311725527172766
-0.801517014242713 0.5496750950625986 -0.2354310212086953
-0.8421087867625585 0.516544151839785 -0.155032030424065
-0.8744428753944282 0.4770672992917901 -0.08807070806097471
-0.9015490334393771 0.4314770860569145 -0.03220038062442709
-0.9245683332349567 0.3807614740333641 0.01393187248983895
-0.9441527415332972 0.3254264572219523 0.0517032068166668
-0.9605233956917748 0.2658504829418828 0.08196540153204426
-0.9735459018747933 0.2028895741321047 0.1050913776257959
-0.9829687901355919 0.1378933175389755 0.1214816471631232
-0.988660043451331 0.07190529792929869 0.1318368181219141
-0.9905833658354488 0.005539199162535115 0.136798803367392
-0.9887417621069792 -0.06081630387039753 0.1367154162818829
-0.9831576575391826 -0.126829761488244 0.131587355102615
-0.9738753075855555 -0.1921181189778339 0.1210682189327892
-0.9609863030837379 -0.2560892584887896 0.1045161086728341
-0.9446876966542611 -0.3177537548778144 0.08122627069560523
-0.9252854811500492 -0.375854266956008 0.05079712968153981
-0.9029028318096413 -0.4296514043471218 0.01288980421403106
-0.8772300656130624 -0.4789140341062145 -0.03329804679877221
-0.8474653783448602 -0.5233161722622803 -0.08912135746024827
-0.8122717435847112 -0.5620482207578988 -0.1559372056846368
-0.7683118382266877 -0.5949997075291681 -0.235949713458041
-0.7124655829544727 -0.6187273905507152 -0.3310124005043395
-0.6568806785548541 -0.6152074225631533 -0.4359215541407828
-0.5897531560454154 -0.592975565629407 -0.5482437354871972
0 0 0
0 0 0
0 0 0
0 0 0
0 0 0
0 0 0
0 0 0
0 0 0
0 0 0
0 0 0
0 0 0
-0.59283611130378 0.5898351802028887 -0.5483063061184298
-0.6614112385355801 0.6173250205861348 -0.4259636046626019
-0.7147324195129432 0.6252261817594826 -0.313448225612512
-0.7587337550553038 0.6156238311046094 -0.2129093410721114
-0.7983104245911948 0.589171884441314 -0.1248076783411038
-0.8322575788486111 0.5520501027809533 -0.05087245294445703
-0.8613857596686627 0.5078472574902239 0.01028280602259182
-0.8868438181658571 0.4580554826833468 0.06077184351926025
-0.9092408550006409 0.4035063753077122 0.1022920949229918
-0.9287954565441834 0.344664704647209 0.1361809137630284
-0.9454357344342785 0.2819202244026945 0.1633164386320319
-0.9588843055275894 0.215892699300296 0.1842043186293519
-0.9687891602637124 0.1474746707398876 0.1992455380822663
-0.9748567093783516 0.07756342739379235 0.2088978480285025
-0.9769025276213575 0.006917713825716574 0.2135733990047159
-0.9748546794801962 -0.06381941085627267 0.2135074628520542
-0.9687503527532196 -0.1340447217496342 0.2086977877495944
-0.9587379965731087 -0.2031199484347021 0.1989063610718999
-0.9450825690147203 -0.2703053705143655 0.1837224657346703
-0.9281557657769122 -0.3347497264610009 0.1626944838934563
-0.9083655221083848 -0.3956383768581163 0.1354339433149455
-0.8859961974925441 -0.4524565318766796 0.1014584880179054
-0.861068010063297 -0.504947518616563 0.05991565311843679
-0.8332523029521119 -0.5528116237728991 0.009481995917091536
-0.8017672635378775 -0.5954101660899142 -0.05153629047345221
-0.7652187299993083 -0.6314705520551697 -0.1252407168032192
-0.7225522071031021 -0.6576597702787353 -0.2130772971655032
-0.6748902730572153 -0.6679854211976146 -0.3135579633818953
-0.6172242942916674 -0.6615436959182528 -0.425903872871533
-0.5442414741200378 -0.6354179452227871 -0.547763865855077
0 0 0
0 0 0
0 0 0
0 0 0
0 0 0
0 0 0
0 0 0
0 0 0
0 0 0
-0.5499110657403211 0.6133341624361764 -0.5669382902618745
-0.6150725799698307 0.6569571474134034 -0.435996591536791
-0.6678551997648104 0.674986358938003 -0.3136285181464242
-0.7112795986132457 0.6723659888199611 -0.2049519691896988
-0.7483884733105148 0.6539357940106598 -0.110827209328775
-0.7816868627343856 0.6229256486773247 -0.03048417373666645
-0.8118247893363028 0.5827433041816427 0.03675258971185735
-0.8392630673151781 0.5358035203834551 0.09247751827019557
-0.8643569596750291 0.4834110119392961 0.1385670949293708
-0.887203328093831 0.4262352050047933 0.1766176792785798
-0.9076553631639168 0.364648583867775 0.207829622534911
-0.9253760446240726 0.2989873713047522 0.2329929780834179
-0.939903165865742 0.229753959621008 0.2525770314854918
-0.9507389315960684 0.1576766270256832 0.2668961693943344
-0.9574482663537316 0.08361616343105517 0.2762266360605081
-0.9597288430662942 0.0084654023672494 0.2808004358069843
-0.957447056806339 -0.0668909725071785 0.280750300462746
-0.9506524639157174 -0.1415754514086723 0.2760729693566637
-0.9395785129963654 -0.2147083598385143 0.2666318400547718
-0.9246268974666016 -0.2854146893932269 0.2521974535157989
-0.9063234924531404 -0.3528740688932266 0.2325029430572442
-0.8852333164867374 -0.4164253859996996 0.207248337211405
-0.8618466533610315 -0.4756582781535338 0.1759816709615083
-0.8364811189356817 -0.5303536792825159 0.1379286501623505
-0.809211270310652 -0.5802860688043924 0.09189776033051213
-0.779805859471512 -0.6249685091600931 0.03629303090272893
-0.7477023250603972 -0.6633207227494805 -0.03077095822983576
-0.712169234532205 -0.6931890542153882 -0.1109230206124421
-0.6722507332566838 -0.71140667609633 -0.2048889768665495
-0.6251071237254416 -0.7148597061555358 -0.3133954121918917
-0.5676738616231133 -0.6985469468020647 -0.4356357996577134
-0.4978760296208582 -0.6565777104052064 -0.5665908306070849
0 0 0
0 0 0
0 0 0
0 0 0
0 0 0
0 0 0
0 0 0
0 0 0
-0.5832528656994085 0.6687128812298103 -0.4611281569485349
-0.6185976346226468 0.7125381898686874 -0.3310986173603266
-0.6575320997162258 0.72264470831246 -0.2131576022354592
-0.6930623023445928 0.7122813368969728 -0.1109952349295808
-0.7252381472946612 0.6880742533593747 -0.02415474223720301
-0.755179413120045 0.6536786385997332 0.04907434602786786
-0.7835166027405368 0.6114805418445722 0.1104231867652589
-0.8104913001936608 0.5629940658322617 0.1616834380759121
-0.8360846146246584 0.5090459930060254 0.2045353128250602
-0.8600577365878946 0.4500391336410703 0.2403444776293013
-0.8819861256941396 0.3861977861658366 0.2700958053055385
-0.9013010304561735 0.3177733146251207 0.294408853485766
-0.9173444430271998 0.24519951300277 0.3136181940996419
-0.9294464112379708 0.1691612232904502 0.3278930453238288
-0.9370175574165743 0.09056797294483392 0.3373359443785086
-0.9396341754475867 0.01048411907634291 0.3420200280365553
-0.937099020228107 -0.06994042273779387 0.3419850341093594
-0.9294722225744936 -0.1495295784496467 0.337227360442627
-0.9170707060676213 -0.2271389461987097 0.3277029435210697
-0.9004340258291478 -0.3017214815731708 0.3133412080885685
-0.8802556501357115 -0.3724044219979066 0.2940492082637877
-0.8572864481020915 -0.438562698032634 0.2696714775330085
-0.8322314641337203 -0.4998445685148699 0.2398878851297568
-0.8056651920116968 -0.5561029875724632 0.2040908268240782
-0.7779694528726742 -0.6072438978373972 0.1613021355600601
-0.749280692721339 -0.6530269177370331 0.1101557453149852
-0.7194405974504396 -0.6928260593083896 0.04896200857156094
-0.6879428144567081 -0.7253648938711892 -0.02409262909316972
-0.6538018030761904 -0.7485133896640744 -0.1107741295967567
-0.6154870148691899 -0.7588568690914856 -0.212866124031234
-0.572718516396643 -0.749893010052971 -0.3311404150056621
-0.533195972714794 -0.7079601308713914 -0.4631355177237935
0 0 0
0 0 0
0 0 0
0 0 0
0 0 0
0 0 0
0 0 0
-0.4627484713085095 0.7264732374448217 -0.5080359117012069
-0.5477388410382575 0.7537550010436468 -0.3630916694441744
-0.5948737044461662 0.7683804093065666 -0.2360441110309002
-0.6313450617182774 0.7653077611721095 -0.1253293410725407
-0.6631941583713082 0.747811269511959 -0.03085147473110461
-0.6926974055623683 0.7195692643311606 0.04889149370877892
-0.7210583872414575 0.6830841201304588 0.1160641504270129
-0.7488306710388999 0.6398516725388688 0.1727497127657302
-0.7761208448860827 0.5906759023895289 0.2207677795096646
-0.8027255435409174 0.5359030744256245 0.2616096262909712
-0.8282089852918505 0.4756273934837238 0.2963924075439881
-0.8519493533391957 0.4098783299396866 0.3258558791717267
-0.8731797556045726 0.3387879247853512 0.3503995668119089
-0.8910429243992631 0.2627267846275547 0.37015826820061
-0.9046719790681339 0.1823839388709862 0.3851035044385465
-0.9132947150946997 0.09877480290644064 0.3951408630993312
-0.9163428398951748 0.01318780149044942 0.4001773127810891
-0.9135418757007069 -0.07290954331011106 0.4001567690737523
-0.9049614217102018 -0.1579884399275123 0.3950752815167262
-0.8910136380648732 -0.2405869275318426 0.3849839309415216
-0.8723984280125653 -0.3194330959460485 0.3699776750231386
-0.8500058261834695 -0.393545585392779 0.3501599172835342
-0.8247971887376048 -0.4622903204319909 0.3255721994971785
-0.7976922344576727 -0.5253722086315202 0.2960931297473196
-0.7694815094221649 -0.5827544636555551 0.2613339659265748
-0.7407645827992375 -0.6345239808581579 0.2205609906265994
-0.7118984597710473 -0.68072769718746 0.1726568424866729
-0.6829356614796953 -0.7211895558594955 0.116122809122385
-0.6535279566808609 -0.7553065585949832 0.04912445806257087
-0.6227731150727266 -0.7818099979023003 -0.03044296836080855
-0.5890173252253517 -0.7984294477447241 -0.124775829223558
-0.549517648036794 -0.8016314893275236 -0.2354088142246288
-0.4979942037154149 -0.7879004281567052 -0.3622356807057109
-0.4077336583822398 -0.7609797316669938 -0.5046415676638861
0 0 0
0 0 0
0 0 0
0 0 0
0 0 0
-0.3872621920839917 0.7244767048910727 -0.5702293386458419
-0.4618179476687587 0.7808858383457493 -0.4206441378196911
-0.5201649762235888 0.8072019245927818 -0.2790223117315559
-0.561925981826719 0.8123367340179243 -0.1560391665998287
-0.5952867204799351 0.8018527398119453 -0.05163239367218648
-0.6248420756370869 0.7799112694338491 0.03620486602126886
-0.6528963762492088 0.7494059778509332 0.1100772557885495
-0.6805925644744366 0.71204389578589 0.1725898364799102
-0.7084034190827756 0.6686514709241136 0.2259862966262595
-0.7363601779641614 0.6194863258943673 0.2720484889472566
-0.7641745964261212 0.564473567503584 0.3121005891803965
-0.7913052130997368 0.5033913180160191 0.3470349271575909
-0.8169958102080003 0.4360349371543344 0.3773478232127329
-0.8403111462090186 0.3623727572406313 0.4031912230774715
-0.8601925716529736 0.2826872651014459 0.4244486421494455
-0.875549535567844 0.1976787978801917 0.4408356877971363
-0.8853882200773258 0.1085046166992196 0.452011557267355
-0.8889586973624614 0.01673677241261782 0.4576814556357328
-0.8858863077981572 -0.07576150610041076 0.4576741677756625
-0.8762493184508193 -0.167022648683646 0.4519851399561419
-0.8605769047247219 -0.2551878617424952 0.4407794757854648
-0.8397661599105987 -0.3386994017197773 0.4243530510596935
-0.8149428008362471 -0.4164309677247729 0.4030551829278234
-0.7873047796988702 -0.4877335672960233 0.3771831798954034
-0.7579854519619951 -0.5523960845391482 0.3468668626429857
-0.7279557835897619 -0.6105393627913424 0.3119648435650347
-0.6979628013932452 -0.6624735728257578 0.271986568011672
-0.6684855141185625 -0.7085429888601518 0.2260397096767806
-0.6396833033741228 -0.7489641804948394 0.172794466693997
-0.6113107129343256 -0.7836440247364328 0.1104592899968631
-0.5825724902992933 -0.8119461394224039 0.03677988884612646
-0.5518781743169308 -0.8323727128015983 -0.05085418071229486
-0.5163702012673844 -0.8422171597259414 -0.1550228083420263
-0.4709119589092097 -0.8373717663182801 -0.2775796316902479
-0.4071483801155764 -0.8120425769731008 -0.4181112887164695
-0.3268544704757758 -0.7568473218683857 -0.5659931859224562
0 0 0
0 0 0
0 0 0
0 0 0
-0.4139436588521043 0.7650047896370427 -0.4933744208291672
-0.4504378701161143 0.8240060409523992 -0.3436855679821473
-0.4895266757033522 0.8471143785025524 -0.2067870003386539
-0.5231980047985472 0.847526878718502 -0.08923025061318726
-0.5526903825628152 0.8333338914572902 0.009379038928248448
-0.5801599570932955 0.8093125106259272 0.0918024200653976
-0.6071117216005093 0.7780904677494082 0.1612159467694559
-0.6343851640475249 0.7409058790968309 0.2204856955817011
-0.6623281738030685 0.6981250256928896 0.2719243252965685
-0.6909215291923816 0.6495942806755538 0.317261266170439
-0.719846861987213 0.5948785976053996 0.3576869432872758
-0.7485177333305957 0.5334405471201431 0.3939065696047586
-0.7760937885222637 0.4648020206629579 0.4261895270942145
-0.8015004727054362 0.3887107234876332 0.4544237732543073
-0.8234791927940583 0.305310313308115 0.4781920447089705
-0.8406895997342764 0.2152890365618821 0.4968819051191923
-0.851871094333239 0.1199640419392251 0.5098276839100568
-0.856044145493609 0.02125605072246069 0.5164654889475198
-0.8527024567911656 -0.07847133749204731 0.51646952414883
-0.8419319257551868 -0.1766905823102222 0.5098343559598907
-0.8244086870363302 -0.2710394151814253 0.4968782065628807
-0.8012746882869447 -0.3596064921722652 0.4781652901437089
-0.7739369438345881 -0.4411005923783547 0.4543697551239975
-0.7438560087841936 -0.5148808195970067 0.4261173310330895
-0.7123755680839503 -0.5808717105329558 0.3938389339559845
-0.6806141169905453 -0.6394105366268551 0.3576570835363634
-0.6494106244992761 -0.6910727938335677 0.3173077912855702
-0.6192996581558711 -0.7365033921419523 0.2720858077361223
-0.5904877130141399 -0.7762559216723924 0.2207962971788126
-0.5628054243446754 -0.8106183338388114 0.161703343108911
-0.5356149826895933 -0.8393821617317391 0.09248879329399061
-0.5076587575294218 -0.8614968358852636 0.01028531299292424
-0.476878033243392 -0.8745454698688355 -0.08807702618623731
-0.4404984695435879 -0.8739507535114501 -0.2053562240754458
-0.3969101528193253 -0.8517309603322744 -0.3420770407384875
-0.3550439927540785 -0.7944571383502439 -0.492728747419493
0 0 0
0 0 0
0 0 0
-0.2973135253221652 0.7568584455122799 -0.5820394841565655
-0.3761651436370712 0.8240287370897958 -0.4236465804921563
-0.4182041286167075 0.8654266736203066 -0.2759383615853927
-0.4506643405146961 0.8808526380596234 -0.1449147411820319
-0.478800233383487 0.8772878108504051 -0.03341307296884697
-0.5048288530094243 0.8611451794158383 0.0598064305744118
-0.5302283533895947 0.8365773955175506 0.1378265379773794
-0.5559697287205375 0.8057808794875891 0.2039971445844733
-0.5826125568747639 0.7696173446753616 0.2612503614288311
-0.6103886924738222 0.7281126946773704 0.3118934881490079
-0.6392516374307108 0.6807929453362734 0.3576007684870326
-0.6688911633767303 0.6269077197524359 0.399463793692651
-0.6987235217279616 0.5656010277820128 0.4380421413015021
-0.7278719201046282 0.4960774534479357 0.4734021843040145
-0.7551586387407015 0.4177933168372397 0.5051575741701076
-0.7791381220842355 0.3306772710274157 0.53253763166645
-0.7982028836323093 0.2353518680036213 0.5545102837533957
-0.8107810725098843 0.1332921567676256 0.5699712741919155
-0.8156088633938728 0.02683621210170063 0.5779809682622661
-0.8120095261313071 -0.08101846572625913 0.5779935446727518
-0.8000747015541609 -0.1870230298448619 0.5700025072231414
-0.7806634210928777 -0.2881753096569093 0.5545445102710045
-0.7552163704104736 -0.382137522569272 0.5325590556066522
-0.7254671720762129 -0.4674520441574749 0.5051593497627652
-0.693157348284849 -0.5435378596671832 0.4733914718572076
-0.6598277872254902 -0.6105310710888462 0.4380400694459571
-0.6267065362825534 -0.6690570574545701 0.399501653627311
-0.5946734508394497 -0.7200026088075668 0.3577145931842842
-0.5642664605895057 -0.7643200425315337 0.3121189421332601
-0.5356956126822079 -0.8028608492007986 0.2616193176613796
-0.5088393170442208 -0.8362100790743425 0.2045366790686994
-0.4832057264241869 -0.8644728437644201 0.1385601975486807
-0.4578515755509081 -0.8869501541350452 0.06075655392935032
-0.431273841531469 -0.9016454260690545 -0.03222420300708152
-0.4013385012350013 -0.9046239229490817 -0.1434676460204736
-0.3652178507658325 -0.8896204375780186 -0.2742105003924539
-0.3175687567403122 -0.8494537720545803 -0.4214004910826004
-0.2324282781569761 -0.7831639910655424 -0.5767419341536332
0 0 0
0 0 0
-0.325632706829884 0.7870802188115505 -0.5238970026619773
-0.3538279026543238 0.8611713007972912 -0.364951785837997
-0.3814123519687349 0.8980005088152319 -0.219362038496322
-0.406278073145389 0.908971788763421 -0.09331888615653267
-0.4295423393478769 0.9029564329817711 0.01276944965098429
-0.4523409886732129 0.8860683423438072 0.1013435871786517
-0.4755344542201885 0.8619371227131425 0.1758731910738412
-0.4997110868291729 0.8323407130971151 0.239786920037336
-0.5252281659778685 0.7978212004249262 0.2960011922544465
-0.5522411107631334 0.7581353266756348 0.3467860753108878
-0.5807060497718508 0.712547531070361 0.3937721418839896
-0.610355669168123 0.660022690497878 0.4379908733549989
-0.6406540050470424 0.5993798060073188 0.4799023796229941
-0.6707410289837374 0.5294595169645361 0.5194026298869849
-0.6993879379905569 0.4493444973199041 0.5558291418427419
-0.7249986469395401 0.3586473881424389 0.5880042626668979
-0.7457046719236637 0.2578379405352869 0.614364825402417
-0.759593486087248 0.1485201953009261 0.6332136191535965
-0.7650656067444902 0.03351625846433855 0.643079526804606
-0.7612319156002486 -0.08337958721000398 0.6430970495253919
-0.7481864103076694 -0.1979914345948899 0.6332586258851752
-0.7270077770345228 -0.306510579017513 0.614419203054128
-0.6994852181386896 -0.4061007841943601 0.5880498130959612
-0.6677099700764818 -0.4951623999023678 0.5558575299331571
-0.6337010300055306 -0.5732587274102402 0.5194202884157693
-0.5991618157804716 -0.6408374299669458 0.4799296895004598
-0.5653778041630342 -0.6988944632395093 0.4380576078701785
-0.5332146098361994 -0.7486759420660785 0.3939118094557451
-0.5031647730649774 -0.7914509242572821 0.3470311882796169
-0.4754018862122509 -0.8283426994129743 0.2963805305937961
-0.4498158113886506 -0.8601800259000529 0.2403249027199501
-0.4260146759517469 -0.8873146532383166 0.1765904924459229
-0.4032886513194858 -0.9093413795966095 0.1022571223448249
-0.380545910274234 -0.9246577258249208 0.01388885329462415
-0.35626790479235 -0.9298433741482898 -0.09200260630760318
-0.3286129102478751 -0.9189837639793956 -0.2179045588340998
-0.2961021069925537 -0.8832682868985243 -0.3635390977514187
-0.2619175810462753 -0.8108980558515121 -0.523300605536727
0 0 0
0 0 0
-0.306890993554666 0.8275422270041809 -0.4700976287963915
-0.3196353963438823 0.8945240900904914 -0.3125057849894413
-0.3376280494041887 0.9255763280624106 -0.1712184604124994
-0.3565512408885223 0.9329117267664745 -0.05046704550941135
-0.3757503414785283 0.9253345380036134 0.05067221779641835
-0.3955266313301997 0.9084320647819581 0.1353139593115647
-0.4163039871687609 0.8853171882533601 0.2071339336046982
-0.4384301366736172 0.8573882041990473 0.2695635037550246
-0.4621454597902718 0.8249179147480704 0.3254719771699752
-0.4875757148110184 0.7874458837870165 0.3770926974013261
-0.5147098256583278 0.7440189806966765 0.4260393781493114
-0.543354241676101 0.6933434572385694 0.4733297142131016
-0.573063792665756 0.6339109405656129 0.5193792535005212
-0.6030551230336394 0.564157209615444 0.5639602480865095
-0.6321213400540899 0.4827068114163112 0.6061491117377955
-0.6585881594002102 0.3887370738194446 0.6443175643548282
-0.6803766602461646 0.2824435794973195 0.6762493804751436
-0.695244581465458 0.1654943235640921 0.6994616507078736
-0.7012303649688005 0.04124828555760652 0.7117405104279789
-0.6971987187622601 -0.08551775100121015 0.7117588501873069
-0.6832405678653519 -0.2094527846418253 0.6995082968977681
-0.6606797258910856 -0.3257518681079708 0.6763046800227295
-0.6316779261111601 -0.4310220419761585 0.6443624732979145
-0.5986758186619571 -0.5235823254991609 0.6061755625017603
-0.5639239157556371 -0.6032591921245481 0.5639753224708208
-0.5292194256880099 -0.6709299793204674 0.5194032752336953
-0.4958336235869114 -0.7280453025153367 0.4733910172426432
-0.4645570487485401 -0.7762519042405307 0.4261686633493781
-0.4357909205771116 -0.8171393930967358 0.3773188118714082
-0.4096368595563963 -0.8520793155513444 0.3258197098125353
-0.3859599441491103 -0.8821033509333003 0.270052957370694
-0.3644149253886695 -0.9077605269517799 0.2077801430892684
-0.3444352237247961 -0.9288888460017451 0.1361245328043234
-0.3252005423350846 -0.944234063899911 0.05163951816220451
-0.3056478838880178 -0.9508629750653477 -0.04938596687979348
-0.2847396117229881 -0.943382761050889 -0.1701538117934549
-0.2626340532724905 -0.9131182089872892 -0.3118308683846216
-0.2444971360486081 -0.847608341949632 -0.4709365659209563
0 0 0
0 0 0
-0.2576753661632687 0.8682538714240815 -0.4239559180265317
-0.2701805223535299 0.92474118852479 -0.2680601044290848
-0.2856012767377022 0.9492806571912331 -0.1315224110498823
-0.3014354898167887 0.9533560138859547 -0.01577834802491185
-0.317655395671491 0.944731837063926 0.0810975069814571
-0.334642545697454 0.9282162229043261 0.1625700161356727
-0.3527561769514488 0.9064001126214147 0.2323831221549539
-0.3722741583416464 0.8803490199727201 0.2939346084830596
-0.393401557568169 0.850117104311505 0.3500516011389742
-0.4162721179997332 0.8150735384774643 0.4029548990269765
-0.4409263046580223 0.7740888755145594 0.4542800971484718
-0.4672622859777159 0.7256419467770882 0.5050838753914404
-0.4949578914069824 0.6679087812512607 0.5558008147361865
-0.5233646983242279 0.5988989068772513 0.6061431282207383
-0.551387429742533 0.5167102294917286 0.6549675114542154
-0.5773883279775051 0.4199656889713405 0.7001796475206685
-0.5991956384082783 0.3084414471457506 0.7388020442548399
-0.6143255370445262 0.1837631178199333 0.7673560132455151
-0.6204916018265544 0.04984672701842952 0.7826272905210158
-0.616310703024919 -0.0873613333575381 0.7826423926487261
-0.6018631670665406 -0.2210637437061782 0.7673926956566902
-0.5787081517361125 -0.3452696583961465 0.738840807011348
-0.5493397998874271 -0.4560062185624708 0.700202908371564
-0.5164642001151521 -0.5516155401913249 0.6549694846470698
-0.4824521717989261 -0.6323315054540037 0.6061326332881046
-0.4490848580037396 -0.6995792424444827 0.5557982312427454
-0.4175317625211874 -0.7553313631328975 0.5051155898937875
-0.3884497694065589 -0.8016556014842827 0.4543732752449947
-0.3621143664673778 -0.8404499876167403 0.403133977621522
-0.3385335435900657 -0.8733036650741532 0.3503366215975764
-0.3175238938775012 -0.9014112073411618 0.2943406395600475
-0.2987433666313916 -0.9254733607154688 0.2329194270552735
-0.2816815687260984 -0.9455205630273361 0.16323712424713
-0.265616545437574 -0.960595418669687 0.08187974365261093
-0.2495751913745049 -0.968240337581149 -0.01492891593924594
-0.2324320223726211 -0.9637880204902721 -0.1307211021037356
-0.2136153736860995 -0.9395572721826519 -0.2675828926027248
-0.1961791536475485 -0.8838911248164064 -0.4245588523925966
0 0 0
-0.08966259908310593 0.8271921310148947 -0.5547195658282649
-0.1762706616317561 0.9047590570235159 -0.3877366407522254
-0.208925243910997 0.9494278541923485 -0.2343864162882355
-0.2274924675097846 0.9684807017436277 -0.1014510107218242
-0.2421469562767545 0.9701814807298552 0.0106181926300264
-0.2559969676882616 0.9610252369723089 0.1043841292377931
-0.2702035985744398 0.9451366100484797 0.1835941275299688
-0.2853014904520618 0.9246958207724473 0.2520728041495183
-0.3015950568416013 0.9005183691001861 0.3132205111448665