# OOMMF: rectangular mesh v1.0
# Segment count: 1
# Begin: Segment
# Begin: Header
# Title: 
# Desc: time = 1.2e-10
# Desc: stepsize = 1.2377372504577455e-13
# Desc: step = 766
# meshunit: m
# valueunit: (none)
# valuemultiplier: 384000.0000000002
# xmin: 0
# ymin: 0
# zmin: 0
# xmax: 9.357999999999999e-08
# ymax: 9.357999999999999e-08
# zmax: 2.3395e-08
# ValueRangeMaxMag: 0.9999999999999999
# ValueRangeMinMag: 0
# meshtype: rectangular
# xbase: 1.16975e-09
# ybase: 1.16975e-09
# zbase: 1.16975e-09
# xstepsize: 2.3395e-09
# ystepsize: 2.3395e-09
# zstepsize: 2.3395e-09
# xnodes: 40
# ynodes: 40
# znodes: 10
# End: Header
# Begin: Data Text
0 0 0
0 0 0
0 0 0
0 0 0
0 0 0
0 0 0
0 0 0
0 0 0
0 0 0
0 0 0
0 0 0
0 0 0
0 0 0
0 0 0
0 0 0
0 0 0
-0.815204962671233 0.05426617525411437 -0.5766247055576811
-0.8275559665748015 0.0774672993056563 -0.5560125355823669
-0.8417123927784712 0.06183091687272267 -0.5363741097049876
-0.8513476490446048 0.02973889763127217 -0.523758320634527
-0.8543872042724507 -0.007519696588870298 -0.5195824855965756
-0.8507040486754452 -0.04125861263749821 -0.524023232739192
-0.8420010229259277 -0.0601930092069499 -0.5361073390975937
-0.8337138298031946 -0.04181619550069907 -0.5506111656956625
0 0 0
0 0 0
0 0 0
0 0 0
0 0 0
0 0 0
0 0 0
0 0 0
0 0 0
0 0 0
0 0 0
0 0 0
0 0 0
0 0 0
0 0 0
0 0 0
0 0 0
0 0 0
0 0 0
0 0 0
0 0 0
0 0 0
0 0 0
0 0 0
0 0 0
0 0 0
0 0 0
0 0 0
-0.7465780959828461 0.2465420932825996 -0.6179305323727426
-0.7769081243379619 0.2830240986775437 -0.562415438893202
-0.8177035010713737 0.2714507826094725 -0.5076174316907583
-0.8589991533155151 0.2278532238484348 -0.4584794030107589
-0.8965675005804569 0.1494115137245075 -0.4169447403067494
-0.9133736672720283 0.1123729876185224 -0.3913066004908842
-0.9250871841188968 0.07657385290994456 -0.3719544956436142
-0.9324516818592765 0.03626593426139379 -0.3594699472973423
-0.9349247926526022 -0.006468323880998424 -0.3547869682917597
-0.9324684024465008 -0.04823685706166195 -0.3580165974639758
-0.9255830370769705 -0.08690612406072669 -0.3684336671316998
-0.9137735781495102 -0.1279032320793975 -0.385562720059245
-0.8835538564152773 -0.2097410227265698 -0.4187377296104367
-0.84830277307719 -0.2601651343260698 -0.4611903165404131
-0.8125335806822814 -0.2808533975737528 -0.5107940380769035
-0.7855792761956488 -0.2553885174613786 -0.5635972905903635
0 0 0
0 0 0
0 0 0
0 0 0
0 0 0
0 0 0
0 0 0
0 0 0
0 0 0
0 0 0
0 0 0
0 0 0
0 0 0
0 0 0
0 0 0
0 0 0
0 0 0
0 0 0
0 0 0
0 0 0
0 0 0
0 0 0
-0.7180258392363565 0.3291204618825789 -0.6132851015303755
-0.7584623684761682 0.365185979613544 -0.5397907334321481
-0.8183299832532897 0.3340337631844323 -0.4677151735420995
-0.8557532483430519 0.3188907331480733 -0.4074249357398226
-0.8894005522431659 0.2910602311383348 -0.3524919850425676
-0.9199692285690064 0.2468499185023801 -0.3045024404196366
-0.945065926975898 0.1896246091108495 -0.2662572088953524
-0.9606908891195544 0.1396452148098693 -0.2399421379070059
-0.9708463873185702 0.09199757876967864 -0.2213452907359826
-0.9768409120085761 0.04359268994977862 -0.20947913979486
-0.978861017580382 -0.0058074807155929 -0.2044440789781793
-0.9769124075802667 -0.05550557573702319 -0.2063038510979074
-0.9708591402046383 -0.1057174156075397 -0.2150729130280527
-0.9596005951712195 -0.159441774805605 -0.2318297180990371
-0.9396176776380857 -0.2214421818804705 -0.2609252382465642
-0.9139799426938008 -0.2722783813977172 -0.3008407342380264
-0.8849530118209984 -0.3085282392956379 -0.3488101094092261
-0.8520479239605186 -0.3336571732726554 -0.4033450458333042
-0.7987095109854413 -0.3747529845183487 -0.4707688579929502
-0.7617372840369502 -0.3523253044156857 -0.5437124147712686
0 0 0
0 0 0
0 0 0
0 0 0
0 0 0
0 0 0
0 0 0
0 0 0
0 0 0
0 0 0
0 0 0
0 0 0
0 0 0
0 0 0
0 0 0
0 0 0
0 0 0
0 0 0
0 0 0
-0.7247029942837587 0.4051402036201421 -0.5573750850969063
-0.7796588467145827 0.4122910112870306 -0.4713260068695588
-0.8227977084594367 0.4094866285035347 -0.3941124611461903
-0.8644046696317906 0.3844603507441681 -0.3240290200343559
-0.8970640163878929 0.3539818064740363 -0.264524159931374
-0.9246977448874448 0.3156061402668972 -0.212901021195072
-0.9484256273217694 0.2681196517694802 -0.1691173609488976
-0.9675964430174974 0.2137623395776164 -0.1343978632203283
-0.9812174026281549 0.1590362243483424 -0.1091782401611224
-0.9902936197283383 0.1046545116972347 -0.09146573077802157
-0.9955325867215574 0.04995869335617285 -0.08011864785196608
-0.9971831353394689 -0.00533070162429379 -0.07481562814504812
-0.9952572626491962 -0.06121208064333535 -0.07560464487940811
-0.9895526160211725 -0.1179539964764583 -0.08290039107799503
-0.9794694672562199 -0.1761994466170627 -0.09794548343163374
-0.9641287751773658 -0.2352697493941052 -0.1228977212767853
-0.9442951443171761 -0.288887382112904 -0.1576412410346851
-0.9205558907056151 -0.3348986324495801 -0.2010466564521574
-0.8919344285269978 -0.37458137858192 -0.2532622475377748
-0.8549297160211803 -0.410358674315833 -0.3173341126914899
-0.815910263150106 -0.4259972208583903 -0.3909179073760268
-0.7660531388047844 -0.4318220932679944 -0.4761221148959418
0 0 0
0 0 0
0 0 0
0 0 0
0 0 0
0 0 0
0 0 0
0 0 0
0 0 0
0 0 0
0 0 0
0 0 0
0 0 0
0 0 0
0 0 0
0 0 0
-0.6167405562619088 0.4824982697004269 -0.6219537812392849
-0.671446493426792 0.527267921355878 -0.5207188738406893
-0.7574406868411363 0.4994066592654355 -0.4205669918086343
-0.8110139871836093 0.479740274560662 -0.3348217160773835
-0.8508463663758895 0.4563852503221322 -0.2603324108007862
-0.8844717040881084 0.4237349723012196 -0.195341951245403
-0.9123755251728332 0.3846306321103936 -0.1401077367883548
-0.9360051875403043 0.3394213398331235 -0.09320645344355591
-0.9560489153453379 0.2881807750256541 -0.05405841629770199
-0.9723955329252706 0.2322196658342585 -0.02282442434768955
-0.9847222534534057 0.1741311443932523 0.0006542980528105248
-0.9931988135002654 0.1151160538841516 0.01744737802092801
-0.9980570612560857 0.05544088855652621 0.02843255797369397
-0.9994104950724134 -0.004842392384791941 0.03398843296040714
-0.9972597188093842 -0.06567255251684201 0.03406125491154775
-0.9915052950064065 -0.1269801367956356 0.02816549011857276
-0.9819580489442561 -0.1884781006339597 0.01530998677346038
-0.9684936047799142 -0.2489728314854802 -0.005715477452424692
-0.95140189139017 -0.3059289526262425 -0.03524084284202779
-0.9308105679501232 -0.3580993596934469 -0.07318835412489857
-0.9061433096874735 -0.4055248848916165 -0.1202242489777812
-0.8761219633835494 -0.4480213620404493 -0.1780088886330514
-0.8401957651766899 -0.482890449272795 -0.2467547166322741
-0.7915835374558644 -0.5152470042266284 -0.3285057501237142
-0.7133997013524447 -0.5558191853258518 -0.42676211093998
-0.662131203498045 -0.5285635746294375 -0.531227650757357
0 0 0
0 0 0
0 0 0
0 0 0
0 0 0
0 0 0
0 0 0
0 0 0
0 0 0
0 0 0
0 0 0
0 0 0
0 0 0
-0.5992309539307547 0.5223735922369974 -0.6066696745220186
-0.6663070194336661 0.5553101446214463 -0.4976601241147734
-0.7214124708278211 0.5695544722677798 -0.3939184560970302
-0.7772829488533664 0.5544928157342921 -0.2972691284356151
-0.8211533087853503 0.5287778046299572 -0.214712078844189
-0.8560855526118021 0.4961451334959642 -0.1447671686454366
-0.8854228375494833 0.4568888038192706 -0.08531717113463316
-0.9104907119453687 0.4120351816852291 -0.03512367456338538
-0.9321145290161649 0.3620935542083814 0.007124801591215791
-0.9506387589573315 0.3074118698508085 0.04223614853289679
-0.9659843163663697 0.248793789710954 0.07054041916133952
-0.9779044962512916 0.1875298390299404 0.09238698872087545
-0.9862650704223759 0.1246044810960416 0.1084201741168622
-0.9910180823012521 0.0605776048376283 0.1192204443209471
-0.9921393295132951 -0.004204666530071061 0.1250674682412621
-0.9896115167118686 -0.06943541954386277 0.1258879204054213
-0.9834344218590086 -0.1347335057236296 0.1212584856340251
-0.9736554688434046 -0.1994823351829224 0.1104618755104983
-0.960427964446135 -0.2626409312797229 0.09272468024411032
-0.9440231311332715 -0.3228806681564912 0.06758995499444125
-0.9245846264216002 -0.3793952187081256 0.03467760958085706
-0.9018917132788902 -0.431907796962028 -0.006855103374461474
-0.8752822477871371 -0.4800708179215182 -0.05842085662552666
-0.8435832241835055 -0.5230782718162714 -0.1214761928521937
-0.8037781236078919 -0.5608552964083907 -0.1984491483983538
-0.7529393410470918 -0.5900178264537163 -0.2914812398258289
-0.701938021572273 -0.592735775084103 -0.3949016520687777
-0.6396530929882364 -0.5774323358709506 -0.5073616246043834
0 0 0
0 0 0
0 0 0
0 0 0
0 0 0
0 0 0
0 0 0
0 0 0
0 0 0
0 0 0
0 0 0
-0.5598723080506377 0.5614562818365016 -0.6093519855259203
-0.6326526325188552 0.5988674925354167 -0.4910278739046329
-0.6896838782777863 0.6164527524937276 -0.3798975545941536
-0.7369134756317034 0.6158235477710555 -0.278782867915287
-0.7793829177367385 0.5974353275648235 -0.1887678386740684
-0.8156421181597102 0.5676030287098801 -0.1120479222623583
-0.8465989167215666 0.5301039596051007 -0.04754015373200381
-0.8736181696371476 0.4865654938096243 0.006731561010304812
-0.8975019062566788 0.4378838007993328 0.0524223736886924
-0.9186311668898401 0.3845253686682727 0.09086814661441352
-0.9370510786785015 0.3268304615178169 0.1229517196768995
-0.9525473494760837 0.2653346596448063 0.1491679100787478
-0.9647833943757179 0.2008313801261101 0.1698816019865279
-0.9734497404935394 0.1341212010649723 0.1854915258386463
-0.9783217904200352 0.06587962092457998 0.1963322437506619
-0.9792668993453033 -0.003311396285521733 0.2025472154863524
-0.9762473907037722 -0.07288060924106021 0.204032960427297
-0.9693316626195875 -0.1421864080771256 0.2004473826251421
-0.9587092897714569 -0.2104477338737755 0.191280550535856
-0.944691911944666 -0.2767354936538844 0.1759961876248211
-0.9276576754824357 -0.3401329654735613 0.15414539537944
-0.907911887707893 -0.400021485276299 0.1252150768718898
-0.8855528412378161 -0.4560608700425778 0.08834391994719919
-0.8603805309771706 -0.5079015359182537 0.04220629961652215
-0.8317823973286501 -0.5549015704406483 -0.0149094136941901
-0.7985692425665954 -0.5958469035243905 -0.08516825926957128
-0.7597800442497641 -0.6275247831338476 -0.1701379761036408
-0.7162806096892012 -0.6440981535453892 -0.2684765479193395
-0.6632611809566218 -0.6447408171525936 -0.3799919532482661
-0.5954704953877585 -0.6263290487371177 -0.5031170955460705
0 0 0
0 0 0
0 0 0
0 0 0
0 0 0
0 0 0
0 0 0
0 0 0
0 0 0
-0.5205798976141908 0.5778222389453102 -0.6285841474140328
-0.5895814515427781 0.6320530892447368 -0.502894227818231
-0.6459570630187111 0.6604524023491535 -0.3828081725452994
-0.6923938762290459 0.6674041407637807 -0.2741576791772851
-0.7318952794911082 0.6576096317779875 -0.1785465542973353
-0.7670729645795696 0.6343723814979826 -0.09576402562386183
-0.7986298039651858 0.601282111008437 -0.02550018038692564
-0.8271666020155678 0.5609483436128552 0.03365068064708687
-0.8532241890804635 0.5148147705556687 0.08351188649347265
-0.8770765821209751 0.4636115456256668 0.1257020439673414
-0.8987267806322129 0.4076977558512104 0.1614704729922584
-0.9179481592547539 0.3473351982831354 0.1916492550322676
-0.9343420213934239 0.2829084942322231 0.2167204903780577
-0.9474262495721167 0.2150070499492139 0.2369714541750723
-0.9567390237412998 0.1443536213680283 0.2526113070479619
-0.9619150623998651 0.07172229701570261 0.2637713495417077
-0.9627293170462429 -0.002087979010974856 0.2704586889773064
-0.9591218091090031 -0.07624124327469377 0.2725300499310136
-0.9512118473955267 -0.1498484847839372 0.2697062346004375
-0.9392975756992782 -0.2219722961996139 0.2616263824718915
-0.9238276305370253 -0.2916836855598699 0.2479176004937036
-0.9053309944881339 -0.3581828420024439 0.2282122742408433
-0.8843140615587218 -0.4209163817146341 0.2020347498173926
-0.8611644059343845 -0.4795425276851466 0.1686263030876797
-0.8360737380321327 -0.5337540119461821 0.1268359543044901
-0.8089637391643729 -0.5830400428442553 0.07511309577806011
-0.7794395448775213 -0.6263701879932849 0.01159238863988244
-0.7468961191480483 -0.661716687617816 -0.06540040160189317
-0.7104232503270791 -0.6860951109209518 -0.1567555554520283
-0.6673102834769435 -0.6965771579415059 -0.2635853725077602
-0.614501248065581 -0.6882206432732912 -0.3856689802127463
-0.5496567220723354 -0.6548857978599052 -0.5186541040443908
0 0 0
0 0 0
0 0 0
0 0 0
0 0 0
0 0 0
0 0 0
0 0 0
-0.562067483096407 0.6363903080053981 -0.5282873463584605
-0.6000082740243624 0.6916732228803026 -0.4019679388367677
-0.6416595576850612 0.712108103903495 -0.284912373171787
-0.6793478096342891 0.7109297640641723 -0.1818390060266307
-0.7130517806359206 0.6949136569831345 -0.09301702785118693
-0.7440128702072571 0.6679442183290829 -0.01718633662850567
-0.7730092320860351 0.6326405094877182 0.04714565584311464
-0.8004510264556901 0.590709254581624 0.1016893838984823
-0.8264949806297525 0.5431001902094872 0.1481493516295053
-0.8510665820814359 0.4902579912882655 0.1879701434861834
-0.873882062879884 0.4323707952070747 0.2222287911788194
-0.8944798751303649 0.3695862555129332 0.2516182678636323
-0.9122663310047658 0.3021837737522041 0.2765051684796843
-0.9265867707978866 0.2306655428735831 0.2970359633330258
-0.9368163495876924 0.155756486723833 0.3132332102262429
-0.9424486244013403 0.07835950021395441 0.3250390424091231
-0.9431651537106946 -0.0004915339563988873 0.3323240154130462
-0.9388812253643659 -0.07967488497479555 0.3348939494266185
-0.929764517584631 -0.1580290788273392 0.3325127848453353
-0.916222213792229 -0.2344196137431223 0.3249373780379705
-0.8988518184430451 -0.307827397740208 0.3119418241950283
-0.8783589779085821 -0.3774458931618258 0.2932918404297352
-0.8554605916129884 -0.4427359180702795 0.2686486237590318
-0.8307973391297404 -0.5033865846351477 0.2374399454689613
-0.8048624582933878 -0.5591866693634402 0.1987629040745427
-0.7779360474384391 -0.6098446520995485 0.1513440002161915
-0.7500193182351483 -0.6547633223729189 0.09357357505866254
-0.7207589936521837 -0.6927817371057176 0.02366300492910411
-0.6893026649532407 -0.7219651201593086 -0.060234552888806
-0.6542317773603348 -0.7391451222672657 -0.1601414053905023
-0.6151816061970857 -0.738041030336372 -0.2772129667544411
-0.5790862970469356 -0.7051109395950426 -0.4092403003564818
0 0 0
0 0 0
0 0 0
0 0 0
0 0 0
0 0 0
0 0 0
-0.4405746525808045 0.6889606602377508 -0.5755234001741933
-0.5312595543204742 0.7269171600612412 -0.4351490874995717
-0.5817270529342693 0.7521079828493009 -0.3097211940096524
-0.6204528587919789 0.7586568671200695 -0.1986907345308802
-0.6537347402652113 0.7497206605822141 -0.1027123189619632
-0.6840194767864239 0.7291666057529468 -0.02081865585364764
-0.7126993879158815 0.6997661646848873 0.04885588221012874
-0.7405141359145803 0.6632603045879503 0.1082801129874782
-0.7677494674113379 0.6206352196786654 0.1592880390488271
-0.7943724993376886 0.5723410351825592 0.2034651610034248
-0.8201048215370927 0.5184927111509994 0.2420607158852892
-0.8444628741236446 0.459058917239542 0.2759481196342743
-0.8667896161627825 0.3940367510682622 0.3056318048239475
-0.8862978101700346 0.3236017165668396 0.3312976316287137
-0.9021390991802127 0.2482104327325316 0.3528974735146781
-0.9135006443539728 0.1686385341197115 0.3702399459469903
-0.9197136054123947 0.08596145839058429 0.3830633259536821
-0.9203523388212764 0.001492482716719611 0.3910873878323688
-0.9153038202558516 -0.08330962831426898 0.3940538319255139
-0.9047929105502673 -0.1669566790847254 0.3917591815477651
-0.8893560117003125 -0.2480573068337417 0.3840748064881415
-0.8697674791948811 -0.3254378807074111 0.3709376200059119
-0.8469351393446197 -0.398230643388868 0.3522970684087459
-0.8217901036128124 -0.4659028004057669 0.3280176918675364
-0.7951921491975146 -0.5282086899658831 0.2977667303430026
-0.7678549731118107 -0.5850817089927021 0.260917868436868
-0.7402803460891167 -0.636488542086923 0.2164886717272737
-0.7126829526486119 -0.6822592762947383 0.1631112777027848
-0.6848840638677318 -0.7218897971540468 0.09904009200777582
-0.656153582209946 -0.754301703396813 0.02216792290045439
-0.6250093571155273 -0.7774853311953197 -0.06985601831007895
-0.5888602653553069 -0.7881733972709483 -0.1789588883516233
-0.5416700382168005 -0.7829768495129376 -0.3058444422006125
-0.4580872141297 -0.7653584884438253 -0.452086815133855
0 0 0
0 0 0
0 0 0
0 0 0
0 0 0
-0.367973671325429 0.6784357703248256 -0.6358618425059368
-0.4468195379071453 0.7467235163834387 -0.4927030450731927
-0.5091651473703085 0.7845033033220691 -0.3539850558711943
-0.5536385322090827 0.7999607566061103 -0.2314026005548583
-0.5886237113077782 0.7985328743136367 -0.1259657696624686
-0.6189618867416131 0.7845782395141889 -0.03637538786154251
-0.6471854307241326 0.761304975012436 0.03956960044948764
-0.6746490498193564 0.7307323114778557 0.1043021981554989
-0.7020179794995113 0.6939401114234667 0.1600558596772059
-0.7294998338746798 0.651360914773936 0.2087078126991769
-0.7569708611309597 0.6030107316968932 0.2517402885058923
-0.7840441437299654 0.5486722982107077 0.2902300636717785
-0.8101047971210631 0.488058851173802 0.3248519285341378
-0.8343368466633921 0.4209726755106739 0.3558989080808918
-0.8557639994050494 0.3474570892353901 0.3833295559467644
-0.8733239814354421 0.2679222129342175 0.4068450703476426
-0.8859820995713827 0.1832194145055922 0.4259886916190514
-0.8928726606501369 0.09464350907726618 0.4402510852378282
-0.8934387249361441 0.003855714454617 0.4491685410294454
-0.8875344997195864 -0.08726665653189172 0.4524014173996889
-0.8754593273459712 -0.176825599135806 0.4497818067165479
-0.8579129159507736 -0.2631031920149017 0.4413186365840556
-0.8358856208961746 -0.3447222114669563 0.4271555052909266
-0.8105167156757295 -0.4207371985035977 0.4074835743997196
-0.7829564319940474 -0.4906408681863892 0.3824274624872745
-0.754255601063143 -0.5542978006623677 0.3519267486931592
-0.7252864921864993 -0.6118284457399169 0.3156350063527166
-0.6966816718023389 -0.6634713143965409 0.2728377964058928
-0.6687698794351251 -0.7094302074882586 0.2223862159925685
-0.6414845180058252 -0.7496980185730898 0.1626360787353667
-0.614219333443495 -0.7838238534273212 0.09140447047367331
-0.5855877231302972 -0.8105867118999012 0.006016727547427961
-0.5529569064577223 -0.8276153139947953 -0.09639269496181303
-0.5114554839572162 -0.8311152754309805 -0.2183132769104385
-0.4529802613005095 -0.8154047263459464 -0.3604497400814894
-0.3782876666907303 -0.7705846134535096 -0.5129305944651646
0 0 0
0 0 0
0 0 0
0 0 0
-0.403103750913788 0.7215546678722738 -0.5629087201944615
-0.4421313826322186 0.7933288336394969 -0.4185083060202239
-0.4838437036111011 0.8280027453624837 -0.2833844105593702
-0.5193350514203746 0.838392482081048 -0.1654966777798731
-0.54976410259986 0.8327455044680147 -0.06553133815878846
-0.5774423854211105 0.8162188690317335 0.01862926074041876
-0.6040755007270312 0.7918451278470748 0.08985590089824352
-0.6306966188712977 0.7612092814814119 0.1509377511786398
-0.6578301744214607 0.7249403118309573 0.2042572052659682
-0.6856195037421923 0.683059344080662 0.2517058373427301
-0.7139016328384808 0.6352183417683994 0.2946898656410744
-0.742242384180313 0.5808771843381273 0.3341525697069125
-0.7699493654460294 0.5194607093551873 0.370592155995592
-0.796081942048008 0.4505225362562364 0.4040828948004593
-0.8194835582517667 0.3739205423136093 0.4343156983012686
-0.8388596255122842 0.2899866638596297 0.4606758768038014
-0.8529155367234119 0.1996517892494284 0.4823631933152808
-0.8605443039647139 0.1044792803905745 0.4985454652115018
-0.8610255514246223 0.006569370597293538 0.5085192652829187
-0.8541751264439239 -0.09166532593782922 0.5118420863754922
-0.8403919412053645 -0.1878054780112516 0.5083999287824924
-0.8205842106552774 -0.2797248968340377 0.49839295271346
-0.7960055967934183 -0.3658074198455438 0.4822447733874355
-0.7680579424530248 -0.4450387802772556 0.460464418912208
-0.7381143573923733 -0.5169818331429379 0.4334939210778053
-0.7073911782485756 -0.581668024296184 0.4015719492786624
-0.6768699686928145 -0.6394508772091519 0.3646225735171009
-0.6472519154270913 -0.6908497016975793 0.3221671113573302
-0.6189202750430772 -0.7363944025684357 0.2732416092151363
-0.5918867936229396 -0.7764525664481606 0.2163132811244368
-0.5657002922493528 -0.8110007780126464 0.1492009296615757
-0.5392990965267234 -0.8392778576705308 0.069059120392768
-0.5108243598139315 -0.8592467784042118 -0.02744899310847922
-0.4776566539642589 -0.866742973744086 -0.1435295732207335
-0.4380816852778363 -0.8540617191425539 -0.2804692798140202
-0.3999708857915836 -0.8075769084167078 -0.4334083842188649
0 0 0
0 0 0
0 0 0
-0.2876357356966102 0.705390083589424 -0.6478352518379763
-0.3707074376881769 0.7847730375232735 -0.4966963611897719
-0.415404694911222 0.8385420910570999 -0.352542339260549
-0.4497375121088829 0.8650476548986863 -0.2223257181623276
-0.4789514540446139 0.8709149285183101 -0.1100576755728363
-0.5053201865826435 0.8627941002049236 -0.0154223760704151
-0.5304641317704123 0.8452782376995233 0.06412882173133606
-0.5555210690316219 0.8210019510628445 0.131727515018563
-0.5812118422166035 0.7911882578922365 0.1902995928546055
-0.6079172151064928 0.7561323947562921 0.2422817805310171
-0.6357321396156513 0.7155400317206357 0.2895636539086636
-0.6644879190689046 0.6687527561178752 0.3335049573787794
-0.6937488472216349 0.6149140732718861 0.3749576235667563
-0.7227925374276135 0.5531253867323153 0.4142743709079497
-0.7505929176057498 0.4826262293440051 0.4513116382160724
-0.7758318306504941 0.4030127972355702 0.4854540717862641
-0.7969736517938165 0.3144768120097428 0.5156911217527566
-0.8124278603899028 0.2180107912487035 0.540770068107877
-0.8207974379171414 0.1154946114931164 0.5594216304583772
-0.8211600621414352 0.009584449524436531 0.5706174643937798
-0.8132875945743215 -0.09661663149579143 0.5737843802596226
-0.797710043802964 -0.2000224505113345 0.5689021930941318
-0.7755974786479132 -0.2980077917549415 0.556452969412818
-0.7485161208117647 -0.3886951283194187 0.5372520024212634
-0.7181558672786245 -0.4710388783580685 0.512225072959591
-0.6861069702856205 -0.5447406869999983 0.4821978942843442
-0.6537191520748866 -0.6100724351633752 0.4477308276903876
-0.6220355369639139 -0.6676723598018046 0.409005392031332
-0.5917743380630345 -0.7183565977168127 0.365741618259095
-0.5633272984394287 -0.7629502710714151 0.3171265342177915
-0.5367496401373542 -0.8021192111492236 0.2617338245580175
-0.5117219887238456 -0.8361555647474259 0.1974448728086514
-0.4874721530196464 -0.8646555963524944 0.1214149897117398
-0.4626622344437724 -0.886019522488069 0.0302169255469271
-0.4352879754044888 -0.8967679792905213 -0.07957116178274215
-0.4025480227200496 -0.8910130696386687 -0.2098828223968186
-0.3590380630097474 -0.8615959563348201 -0.3588092492365466
-0.2795994940092241 -0.8069164264467749 -0.5202979950760442
0 0 0
0 0 0
-0.3244134063076398 0.7378801618765451 -0.5918520157242998
-0.3544079117287344 0.8253242112393806 -0.4395850070761864
-0.3836623210339451 0.8745115184822196 -0.296703264998495
-0.4096431099998257 0.8960935165078645 -0.1709062084953006
-0.4333761112977053 0.8989468156909914 -0.06387306721541165
-0.4560549003595228 0.8895718637362653 0.02599667491915547
-0.4786593454739472 0.8720870478395378 0.101732059749968
-0.5019104668329102 0.8487200545776848 0.1666137816665258
-0.5262916590908689 0.8203767742920195 0.2236046461359879
-0.552076175153615 0.7870869186767044 0.2751473773739537
-0.5793357315175506 0.7483028158457261 0.323130014056851
-0.6079262746654678 0.7030930129034483 0.3688981699300181
-0.6374507172893653 0.6502874083934403 0.4132588408155541
-0.6672065843193311 0.5886269186756043 0.456457801391754
-0.696132987559704 0.5169628674920076 0.4981448155563204
-0.722789635200333 0.434531262164288 0.5373618198652369
-0.7454128533222624 0.3412902630407033 0.572608622407635
-0.7620968049252655 0.2382476156727047 0.6020353258314433
-0.7711112701500905 0.1276424771203337 0.6237746444687362
-0.7712935844959029 0.01282838297313592 0.6363502487669466
-0.7623665334744033 -0.1022010669439308 0.6390244209369017
-0.7450267421188066 -0.2135137758914276 0.6319390959834827
-0.720758750654905 -0.3178881791533474 0.6159983189173072
-0.6914799403827776 -0.4131862825038376 0.5925644167505236
-0.6591733115973263 -0.4984000895260509 0.5631055816081363
-0.6256183034731391 -0.5734672986385663 0.5289016881723629
-0.5922488037655521 -0.6389872330640887 0.4908530028627427
-0.5601140521500287 -0.6959411863171189 0.4493752482854332
-0.5298976299077734 -0.7454612853418801 0.4043463538534199
-0.5019555667257082 -0.7886513995014107 0.3550627819098171
-0.4763450238910004 -0.8264281581201421 0.3001864715146748
-0.4528270175568836 -0.8593352234987797 0.2376776510840662
-0.4308331056879582 -0.8872648327139985 0.1647542159468705
-0.4094000637020931 -0.909017419062832 0.07796742705174345
-0.3871072054812777 -0.9216562236153112 -0.02641622485591505
-0.362130941493148 -0.9197386456902582 -0.1514661838072609
-0.3328387894511492 -0.8946973349273148 -0.2978842377680513
-0.3018540216607031 -0.8343570520210914 -0.4612292915133777
0 0 0
0 0 0
-0.3116340090472613 0.7818731697191827 -0.5399616568594555
-0.3253237615036706 0.8623183159379005 -0.3880355295577003
-0.3442832970825226 0.9053316207520122 -0.2486838712432335
-0.3637569705817503 0.9226851464920947 -0.1278005743181476
-0.3829944560215366 0.9233934798944377 -0.02568516975235074
-0.4023487884011878 0.9135157809617022 0.0600364090034245
-0.4223429601656566 0.896672580179551 0.1326827341919673
-0.4434279810361719 0.8747082556500557 0.195594205261353
-0.4659389816618508 0.8482543061327206 0.2517250434406813
-0.4900887501590327 0.8171248915383914 0.3035126498120438
-0.5159543352426219 0.7805644779014299 0.3528600569387405
-0.5434423373562813 0.7373995379718894 0.4011388130904124
-0.5722312890142474 0.6861513788152924 0.4491632634387687
-0.6016908383846206 0.6251693161585631 0.497123185073726
-0.6307922786165086 0.5528417275886525 0.5444879479608216
-0.6580424049576599 0.4679314602009678 0.5899324892152727
-0.6815034671575567 0.3700385773515786 0.6313671479605569
-0.6989739094223585 0.2601051988247838 0.6661687169862777
-0.7083753842280863 0.1407557934825069 0.6916589633777762
-0.7082789861447167 0.01620299142140085 0.7057466548661844
-0.6983572306683797 -0.1084269831008613 0.7074890583668668
-0.6795034555578068 -0.2281469739244521 0.6972976496261221
-0.6535502770711671 -0.3390504207557841 0.6766955353225892
-0.6227694077072008 -0.4387730501121566 0.6477935437462279
-0.5894002660275026 -0.5264525166665392 0.6127438894857908
-0.5553461991227443 -0.6023822862448568 0.5733464749506528
-0.522052159255309 -0.6675843887090942 0.5308414329804835
-0.4905074177721752 -0.7234366314664237 0.4858414487906376
-0.461308977339279 -0.7714030495044852 0.4383279167944569
-0.4347358072420603 -0.8128507012046566 0.3876577297729161
-0.4108070311917342 -0.8489120542772798 0.332544594342114
-0.3893090712725065 -0.8803345720668158 0.2710156605232879
-0.3697888875349422 -0.9072542221191809 0.2003645555046816
-0.3515222683164937 -0.9288173898325043 0.1171765813734118
-0.3335128531524627 -0.9425819813224647 0.01756090169437765
-0.3147148897210231 -0.9436713309695344 -0.1021712155847765
-0.2950913622577707 -0.9237745741036868 -0.2440525028767459
-0.2791884902110148 -0.8703043237643069 -0.4057390429461348
0 0 0
0 0 0
-0.2664722883445678 0.8266509923816507 -0.4956214849447517
-0.2798712733696964 0.8962405469590013 -0.3441292668882633
-0.2959953740455687 0.9320988855818577 -0.2087544156196018
-0.3120777090237922 0.9455355532633658 -0.09257440815582416
-0.3280952076244999 0.9446300614373403 0.005251834224496799
-0.3445114149473835 0.9346893965143525 0.08756493027797227
-0.3617789724971244 0.9188068478697783 0.1578288673422123
-0.3802589032769638 0.8984810577488144 0.2193967988489609
-0.4002247883391705 0.8741165218297512 0.2752097837343781
-0.4218698082268021 0.8453574103809307 0.327714378111072
-0.4452942650461835 0.8112821883312087 0.3788591142014448
-0.4704701633090728 0.77050868026969 0.4300862693286009
-0.4971761683978254 0.7212664517849654 0.4822764384736023
-0.5249023615200143 0.6614997414928633 0.5356263649929734
-0.552729464332271 0.5890759020185818 0.5894741053854308
-0.5792159994247276 0.5021746844404806 0.6421288128697515
-0.6023627709162795 0.3998951244365887 0.6908277510826457
-0.6197656626757071 0.2829957686772308 0.7319862828488822
-0.6290478540795972 0.1544820284700529 0.7618622579952565
-0.6285280759587846 0.01958775049463759 0.7775402097397325
-0.6178346938218523 -0.1151590786191442 0.777829465706749
-0.5980644784943228 -0.243501068287773 0.7635614640001329
-0.571376301498682 -0.3607879818377652 0.7371303509197804
-0.5403276539539954 -0.4645119735783312 0.7016228707610195
-0.5073093950932983 -0.5540968306901407 0.6600105149686725
-0.4742367414272536 -0.6303214115260635 0.6146498444254666
-0.442469461057876 -0.6947130761085226 0.5670930416739264
-0.4128682350003414 -0.7490820576950489 0.5180886906380542
-0.3858993742094759 -0.7952225436011067 0.4676566893922506
-0.3617367473893379 -0.8347416510578228 0.4151540696867139
-0.3403341406424347 -0.8689509310458962 0.3593006431216687
-0.3214609390721037 -0.8987580602768759 0.2981556870801352
-0.3046972589824006 -0.9244912963970821 0.2290751476146059
-0.2893958009351907 -0.9455882692178023 0.1487040534711799
-0.274638838473204 -0.9600785628595108 0.05312872612537164
-0.2593122668809201 -0.9638260953272781 -0.06161498365860408
-0.2427315262337095 -0.9495805029071972 -0.1984395995530303
-0.2274844526613156 -0.9057383292850798 -0.3576155794442586
0 0 0
-0.09587762029186826 0.7769307062183374 -0.6222428462121867
-0.1873489956579043 0.8672295454747619 -0.4613168859705997
-0.2218861094618018 0.924255427133082 -0.3106742020878917
-0.2411957537071657 0.9539821474805568 -0.1781647290627873
-0.2559582581236551 0.9644724260019129 -0.06540878824965304
-0.2694937283329806 0.9625572002998241 0.02927057464678848
-0.2830941092697427 0.9528658966068113 0.1091068667887927
-0.2973878210926264 0.9380724915078452 0.177708988354676
-0.3127460790518984 0.9194140900185067 0.2384693295019384