# OOMMF: rectangular mesh v1.0
# Segment count: 1
# Begin: Segment
# Begin: Header
# Title: 
# Desc: time = 5.599999999999999e-10
# Desc: stepsize = 7.928921702992145e-14
# Desc: step = 3582
# meshunit: m
# valueunit: (none)
# valuemultiplier: 384000.0000000001
# xmin: 0
# ymin: 0
# zmin: 0
# xmax: 9.357999999999999e-08
# ymax: 9.357999999999999e-08
# zmax: 2.3395e-08
# ValueRangeMaxMag: 1
# ValueRangeMinMag: 0
# meshtype: rectangular
# xbase: 1.16975e-09
# ybase: 1.16975e-09
# zbase: 1.16975e-09
# xstepsize: 2.3395e-09
# ystepsize: 2.3395e-09
# zstepsize: 2.3395e-09
# xnodes: 40
# ynodes: 40
# znodes: 10
# End: Header
# Begin: Data Text
0 0 0
0 0 0
0 0 0
0 0 0
0 0 0
0 0 0
0 0 0
0 0 0
0 0 0
0 0 0
0 0 0
0 0 0
0 0 0
0 0 0
0 0 0
0 0 0
-0.8364753868071528 0.01985644194374935 -0.5476446374969427
-0.8459441361806352 0.03844065312474252 -0.5318842304947021
-0.8559699200619115 0.01928630537258703 -0.516665785952853
-0.8609479622804597 -0.01552363548709694 -0.5084561170704776
-0.859131248760808 -0.05479081818646582 -0.5088137809112009
-0.8506296497922797 -0.08986183306571004 -0.5180290048369232
-0.8374836901728421 -0.1094279351461023 -0.5353938696923403
-0.8259127317570834 -0.09074209640723661 -0.5564476897797055
0 0 0
0 0 0
0 0 0
0 0 0
0 0 0
0 0 0
0 0 0
0 0 0
0 0 0
0 0 0
0 0 0
0 0 0
0 0 0
0 0 0
0 0 0
0 0 0
0 0 0
0 0 0
0 0 0
0 0 0
0 0 0
0 0 0
0 0 0
0 0 0
0 0 0
0 0 0
0 0 0
0 0 0
-0.7833464431463454 0.2313393380848721 -0.5769319376359936
-0.8110328873949186 0.2608069985528948 -0.5236462212884675
-0.8476731572780225 0.2433472773931284 -0.4714152320573235
-0.8838663095853009 0.1949776855688614 -0.4251635554822056
-0.915379477971989 0.1130019238522094 -0.3864077852650327
-0.9281633985306629 0.07222171966614624 -0.3650982454579507
-0.9359785555157849 0.03320382676936848 -0.3504877308871939
-0.9393034373577442 -0.009673999044342119 -0.3429511135867845
-0.9376312954649323 -0.05431528786092858 -0.3433619129567758
-0.9310027462492639 -0.09733030945412217 -0.3517963861922019
-0.9199538287951083 -0.1365813674652581 -0.3674649411121287
-0.9037245552596167 -0.1775016590338421 -0.3895832250765439
-0.8669637957272522 -0.2588615923555375 -0.4258690560505072
-0.8260108736475366 -0.3079575667347029 -0.4720891586415362
-0.7853374264616273 -0.3265048730269278 -0.5259654879251082
-0.7549719451645742 -0.2979004412354188 -0.5841854920538179
0 0 0
0 0 0
0 0 0
0 0 0
0 0 0
0 0 0
0 0 0
0 0 0
0 0 0
0 0 0
0 0 0
0 0 0
0 0 0
0 0 0
0 0 0
0 0 0
0 0 0
0 0 0
0 0 0
0 0 0
0 0 0
0 0 0
-0.7572528644353462 0.3259493152411555 -0.5659727406848178
-0.7948186694122957 0.3540873637266538 -0.492834071065278
-0.8497379065184369 0.3165359043973507 -0.4216046862322745
-0.8834958371226634 0.2950154533796356 -0.3638694656798388
-0.9132867102563406 0.261496368129045 -0.3122931864842223
-0.9396564236918498 0.2124253318962165 -0.2681814381783802
-0.9603789865698616 0.151120929042473 -0.2341680314654091
-0.9722564920876352 0.09752171284056499 -0.212618976382843
-0.9788588694630704 0.04681174513065874 -0.1991079460777529
-0.9812840182275564 -0.004033203983976303 -0.1925237877167484
-0.9796654431491767 -0.05522313969747508 -0.1928886319648715
-0.9739995785668852 -0.1060490018275239 -0.2001959793874871
-0.9640983013348641 -0.1567209618673356 -0.2143665213474484
-0.9486600702946641 -0.2102415544793331 -0.236310304046683
-0.9237794501191523 -0.2714165764147953 -0.2701195468395938
-0.8933569364976314 -0.3207511489177697 -0.3146936359056171
-0.8598021541795112 -0.3547735458197883 -0.3672546621279651
-0.8224609476832525 -0.376897179775801 -0.4260358029708458
-0.7631726198985679 -0.4144666207560679 -0.4957670546902053
-0.7224771181705408 -0.3874593256450116 -0.5726273523773578
0 0 0
0 0 0
0 0 0
0 0 0
0 0 0
0 0 0
0 0 0
0 0 0
0 0 0
0 0 0
0 0 0
0 0 0
0 0 0
0 0 0
0 0 0
0 0 0
0 0 0
0 0 0
0 0 0
-0.7614953316929182 0.4069456873107101 -0.5044998190179116
-0.8125011253800151 0.4062816350750694 -0.4180635768121117
-0.8521434148598636 0.3959709009515858 -0.3421383435257717
-0.8899816574802929 0.3642046717847796 -0.2743858713541404
-0.9192973937660361 0.3275342789314863 -0.2182054030948915
-0.9436472335190149 0.2836009665117831 -0.1705883655631041
-0.9639970148176861 0.2312376109764084 -0.131297078004472
-0.9797432895283538 0.1726704609727764 -0.1014297714263842
-0.9901047658743514 0.1143330099673009 -0.08136654978989857
-0.9959874008743795 0.05695175959116408 -0.06903328457322172
-0.9979996686627323 -0.0001004746445905386 -0.063219073497811
-0.9963457726344274 -0.05707687817770488 -0.06353999788316655
-0.9910176170942864 -0.1139599335694946 -0.06998011252919005
-0.9817766194053144 -0.1710119882852041 -0.08288286585183324
-0.9679464948758539 -0.2288801799875931 -0.103409120808539
-0.9485913734910939 -0.2869034678505525 -0.1336443275025408
-0.9247179195393819 -0.3388148470236519 -0.1734971720780936
-0.896964619283002 -0.3824474739282502 -0.2217845834146256
-0.8642013220821206 -0.4190519435868615 -0.2784807775908204
-0.8225631310912633 -0.4510667580236895 -0.346307197694958
-0.7792357807919389 -0.462172949407493 -0.4233057556537068
-0.7245999414446216 -0.4627975618547643 -0.5106597121368943
0 0 0
0 0 0
0 0 0
0 0 0
0 0 0
0 0 0
0 0 0
0 0 0
0 0 0
0 0 0
0 0 0
0 0 0
0 0 0
0 0 0
0 0 0
0 0 0
-0.6572609055834302 0.4973194324027339 -0.5662874571684166
-0.7085991518044733 0.5325488226608348 -0.4629027905992131
-0.7884597501787087 0.4972389832476301 -0.3620560949452317
-0.8378784294250075 0.4700628357578763 -0.277489942058349
-0.8744165987906537 0.4395646303980366 -0.2053741645446713
-0.9050512403262481 0.4003250092114922 -0.1436041064306233
-0.9302327728775401 0.3551812312727212 -0.09226744396674189
-0.9512120896198676 0.3044941954431697 -0.04978800560798848
-0.968543838678219 0.2483612316853304 -0.01547679405448485
-0.9820897599269462 0.1881158286671579 0.0105895444425605
-0.9915700862112105 0.1263665387985687 0.0286402165348301
-0.9971336438221977 0.06434204823686025 0.03980699921560927
-0.9989831087222774 0.002342813307213368 0.0450251009258335
-0.9972226229667057 -0.05954919217347698 0.04473180026434308
-0.9918576410466566 -0.1212535895232049 0.03893567676436333
-0.9827926093821088 -0.1826964121405026 0.02721595000900798
-0.9698367675562151 -0.2436019078843306 0.00864608415560518
-0.9528838096558522 -0.3028054166271578 -0.01792553923881628
-0.9323008618298316 -0.3578114045080302 -0.05278353754101214
-0.9082116763291294 -0.4074001975711237 -0.09579472844807975
-0.8799286346127482 -0.4516187044495443 -0.1475335344247505
-0.8460042652362318 -0.4902821172614534 -0.2095238141494403
-0.8058848380897292 -0.5206865167378262 -0.281842472002571
-0.7521856489679557 -0.5480022157782701 -0.3659375916584148
-0.6667887323285723 -0.5832604147025883 -0.4638966211136051
-0.6111983221169586 -0.5495247558591914 -0.5696131614870832
0 0 0
0 0 0
0 0 0
0 0 0
0 0 0
0 0 0
0 0 0
0 0 0
0 0 0
0 0 0
0 0 0
0 0 0
0 0 0
-0.6361514309203322 0.54381290316577 -0.5473379973000505
-0.6992241335256112 0.5671342428692793 -0.4352520668077832
-0.7505253025154798 0.5720725903473326 -0.3308243063279057
-0.8022157324492112 0.5487656294903385 -0.2351727078150169
-0.84276361366869 0.5155193293771705 -0.1548848362965292
-0.8750613636954315 0.4759355520239442 -0.08805089486856289
-0.9021330681417981 0.4302456217173549 -0.03232077285759067
-0.9251163312222782 0.3794379851009997 0.01365976457794671
-0.9446602077157444 0.324019486823595 0.05126854900443283
-0.9609834719454049 0.2643703516259037 0.08135775211343149
-0.9739504620679735 0.2013498164353988 0.1043012409274755
-0.9833100164309299 0.1363111403062088 0.1205018033683517
-0.9889312547540086 0.0703001601885847 0.1306631579601563
-0.9907790829591153 0.00393124799626137 0.1354302553341964
-0.988857368328254 -0.06240717790837871 0.135153428548561
-0.9831888147202335 -0.1283844213674893 0.1298352608468004
-0.9738171736758414 -0.1936182488714203 0.1191305416673662
-0.9608328237041052 -0.2575168887931137 0.1023979339591885
-0.9444316103472354 -0.3190901138778287 0.07893308940084307
-0.9249190870387082 -0.3770787136981432 0.04833555738000584
-0.9024168686438045 -0.4307416279050945 0.01026865019263672
-0.8766109564364128 -0.4798462374538665 -0.03606687478843278
-0.8466928750625294 -0.5240641141611518 -0.09202162553896993
-0.8113187023415939 -0.5625817195462856 -0.1589458148649919
-0.7671377663377178 -0.5952845603894497 -0.2390312523924767
-0.7110238445017479 -0.6187196558921034 -0.334112376248936
-0.6551941205022725 -0.6148333165745482 -0.4389768300140614
-0.5878255281233017 -0.5921959305629279 -0.5511489166380251
0 0 0
0 0 0
0 0 0
0 0 0
0 0 0
0 0 0
0 0 0
0 0 0
0 0 0
0 0 0
0 0 0
-0.593758644662238 0.5894579653924771 -0.5477134094800151
-0.6622634578697242 0.6168037655213069 -0.4253942021339408
-0.7155325447968363 0.6245657861362697 -0.3129389015839136
-0.7594942107533538 0.6148321258047437 -0.2124852957513987
-0.799037046923551 0.5882541779894579 -0.1244862230194079
-0.8329571163359958 0.5510127443278147 -0.05066949707222027
-0.8620621937251912 0.5066967353613715 0.01035338224148172
-0.8874971740845154 0.4567981960422637 0.06069739767512508
-0.9098677954372624 0.4021495468530881 0.1020604565539038
-0.929389966954979 0.3432171766014978 0.1357801863642792
-0.9459898546161009 0.280393364079794 0.1627352338721507
-0.9593891173966913 0.2143012140745971 0.1834325790773027
-0.969235984702853 0.1458366942931764 0.1982757286072324
-0.9752380496735414 0.07589950320906051 0.2077258093775642
-0.9772124866992341 0.005249438592690519 0.2121984901773816
-0.9750888991165811 -0.06547056460423267 0.2119321683700147
-0.9689056044598822 -0.135658153795869 0.206927028091851
-0.9588115693750875 -0.2046762774338241 0.1969466828568418
-0.945071662933421 -0.2717862888862512 0.1815812905937627
-0.9280570654210528 -0.3361375491705574 0.1603796475855776
-0.9081747611895978 -0.3969155258996114 0.1329536326621097
-0.8857068819405226 -0.4536051956897529 0.09882128174870715
-0.8606694289628326 -0.5059488393615994 0.05713060473547812
-0.8327276211488991 -0.5536440066208811 0.006559185046371627
-0.8010923442614493 -0.5960466855300158 -0.05458392285625576
-0.7643613306994289 -0.6318756708896912 -0.1283935071142633
-0.7214787826786666 -0.6577854532786752 -0.2163022505649821
-0.673585669487853 -0.6677717025905566 -0.316801671523225
-0.6156724660527958 -0.6609368211971678 -0.4290803338889483
-0.542433600316876 -0.6343818499902903 -0.5507499048117643
0 0 0
0 0 0
0 0 0
0 0 0
0 0 0
0 0 0
0 0 0
0 0 0
0 0 0
-0.5508708656026816 0.6131220151127458 -0.5662355375762259
-0.6159629945952004 0.6565865089355311 -0.4352973071053439
-0.6686927734682018 0.6744614184598621 -0.3129724743815567
-0.7120798980958174 0.6716960495306906 -0.2043688718291364
-0.749163930644957 0.653130074296154 -0.1103381668802678
-0.7824455626465768 0.6219908591514756 -0.03010502660172108
-0.8125719381999852 0.5816848413735138 0.03700797976367901
-0.840000421629957 0.5346262918177583 0.09259600293040098
-0.865082629377337 0.4821202706281593 0.138535515298505
-0.8879122072834754 0.4248375788419407 0.1764226282558551
-0.9083397869055583 0.363153059123449 0.2074576756199802
-0.9260265960846612 0.2974061349092735 0.2324313538707328
-0.9405096607814143 0.2281029590727968 0.2518146501676625
-0.9512915485329659 0.1559754331375093 0.2659249028340845
-0.9579385512453319 0.08188705521916904 0.275042255345477
-0.9601503381938814 0.00673197266578677 0.2794029502532172
-0.957795455838614 -0.06860517390446419 0.279143681441008
-0.950925350205346 -0.1432480213583465 0.274264439389721
-0.9397748139724572 -0.2163186921019602 0.2646309174498134
-0.9247462005828195 -0.2869442321233871 0.250014943870879
-0.9063653148525347 -0.3543061864252337 0.2301500430003712
-0.8851962071784982 -0.4177450052858643 0.2047358917129913
-0.8617269223659729 -0.4768511829698692 0.173319533145875
-0.8362712741753789 -0.531405245047984 0.1351252068437991
-0.8088985841753333 -0.5811791407185696 0.08896002986041353
-0.7793714305131946 -0.6256804927504527 0.03322791433970562
-0.7471211685300293 -0.6638200961726887 -0.03395348953502933
-0.7114133024897857 -0.6934324501444585 -0.114203984725705
-0.6712943478848235 -0.7113391091954483 -0.2082320105721379
-0.6239246944232577 -0.7144197380670397 -0.3167371363592625
-0.5662478960646091 -0.6976747911797369 -0.438877210566593
-0.496213747623305 -0.6552330257239724 -0.5695977516372783
0 0 0
0 0 0
0 0 0
0 0 0
0 0 0
0 0 0
0 0 0
0 0 0
-0.5841520594211882 0.6684978575772105 -0.4603009731563289
-0.6194596790176409 0.7121570563983826 -0.3303059689036083
-0.6583609718366767 0.722105382826861 -0.2124256266431583
-0.6938705629516972 0.7115948291020605 -0.1103469123460344
-0.7260374126019392 0.6872498639451805 -0.02360720249439574
-0.755977673729061 0.652722590492417 0.0495073396989278
-0.7843180143571485 0.6103969172026643 0.1107287488610908
-0.8112961303166207 0.5617862117693484 0.1618482041887435
-0.8368894271882137 0.5077178912045454 0.2045449329888
-0.8608558381009772 0.4485967065944308 0.2401837230956615
-0.8827682273839661 0.3846500158235268 0.2697491835915916
-0.9020560901628558 0.3161331254487173 0.2938616293327974
-0.9180607168401532 0.2434841926816963 0.3128577442050713
-0.9301126355146533 0.16739219246639 0.3269102922168102
-0.9376240729934203 0.08876976757435624 0.3361265031324114
-0.9401737317889441 0.008682879519561284 0.3405847349152611
-0.9375671060399027 -0.07171863925430703 0.3403297789725017
-0.9298669032835095 -0.1512602435202939 0.3353623128917692
-0.9173920648321221 -0.2288001252523053 0.3256413703256765
-0.9006833574062639 -0.3032943523714514 0.3110980962830882
-0.8804345017599817 -0.3738733416067945 0.2916398678960426
-0.8573955445776232 -0.4399147583775316 0.2671102497098873
-0.8322694872162141 -0.501068682724309 0.2371870060559497
-0.8056275447363869 -0.5571883177449176 0.2012596276718422
-0.7778471743165974 -0.6081776467796721 0.1583468451382119
-0.7490597501317053 -0.653791467657914 0.1070803789232067
-0.7191017447023564 -0.6933957811118353 0.04577085865847297
-0.6874624633656902 -0.7257032004514347 -0.02739025954095902
-0.6531536328127792 -0.7485709978194635 -0.1141568796308012
-0.6146438925203128 -0.7585716043907872 -0.2162914848057232
-0.5716635237791399 -0.7491914642386454 -0.334533952675017
-0.5319572186224847 -0.7067594140021822 -0.4663825128311755
0 0 0
0 0 0
0 0 0
0 0 0
0 0 0
0 0 0
0 0 0
-0.4637598490791799 0.7264413468347797 -0.507158527475312
-0.5486442558815295 0.753533103268935 -0.3621841282636367
-0.5957302112971887 0.7679833980931968 -0.2351744365381424
-0.6321780761391032 0.7647503530787239 -0.124530227314611
-0.6640209212707595 0.7471061539783374 -0.03014317173802279
-0.6935302954485233 0.7187252628082803 0.04949470573962154
-0.721905244281173 0.6821062234573853 0.1165500673532322
-0.7496949916270222 0.638742371748499 0.1731057539842644
-0.7770019822769942 0.5894369000131012 0.2209797738268506
-0.8036189789581052 0.5345369874050716 0.2616615098829823
-0.8291067641239879 0.4741392872446968 0.296266619744682
-0.8528407099865284 0.4082770444882548 0.3255342967086709
-0.8740519922233659 0.3370870321179888 0.3498648991657358
-0.8918825384430334 0.2609450337852871 0.3693957592653247
-0.9054659833628909 0.1805449201399787 0.3841027008292457
-0.9140319331866628 0.09690581466164036 0.3938970527940202
-0.9170149151900251 0.01131803143537288 0.3986922967445674
-0.9141437636612388 -0.07475107433516028 0.3984387735211067
-0.9054912898475144 -0.159774823307203 0.3931380544381786
-0.8914722514183985 -0.2422947864161615 0.3828452186283091
-0.8727881847409975 -0.3210433857692045 0.3676573527489416
-0.8503296312012257 -0.395043653590504 0.3476780551876301
-0.8250572731136865 -0.4636653558130472 0.3229472617951225
-0.7978890261892956 -0.5266160415838257 0.2933404960677594
-0.7696126096966793 -0.5838598487671584 0.2584649066961651
-0.7408239504738985 -0.6354823350979948 0.2175823434533373
-0.7118757951591226 -0.681526463918805 0.1695716109639124
-0.6828160230635644 -0.7218092719674822 0.1129320749363562
-0.6532915713237233 -0.7557179682523978 0.04583094258083433
-0.6223953686698847 -0.7819716010056663 -0.03382928138333492
-0.5884691287295867 -0.7982864410262824 -0.1282296479205655
-0.5487674063983321 -0.8011188458037721 -0.2388784807655955
-0.4970055878897322 -0.7869564725451769 -0.365629533716347
-0.4064177743467063 -0.759581951485449 -0.5077990268527756
0 0 0
0 0 0
0 0 0
0 0 0
0 0 0
-0.3883128744385516 0.7246575578390981 -0.5692842307775117
-0.4627791622710076 0.7808557068600787 -0.4196424812048828
-0.5210572188284253 0.8069699253018005 -0.2780268231038011
-0.5627827757257667 0.8119240237973736 -0.1550965084296954
-0.596133492031086 0.8012785567559603 -0.0507694215242577
-0.6256971209441685 0.7791894403236699 0.03697200197803736
-0.6537723433097556 0.7485446281230566 0.1107369081715082
-0.6814971848987942 0.7110465907094077 0.1731309701224662
-0.7093399189630964 0.6675190033072721 0.2263962446444135
-0.7373275152846165 0.6182186977439906 0.272311911167942
-0.765167689186751 0.5630719058039089 0.3121993534890187
-0.7923152597229326 0.50185966501866 0.34694870779056
-0.8180108430132732 0.4343817857718613 0.3770553340059813
-0.8413168874366421 0.3606122205036075 0.4026719773430688
-0.8611736504262749 0.2808395913137213 0.4236851044847165
-0.876490969011173 0.1957700368585974 0.4398154998521969
-0.8862769510774637 0.1065652597044898 0.4507294215080138
-0.8897848493538786 0.01479958059301264 0.4561402133933883
-0.8866438628194916 -0.07766413784651088 0.4558847905086196
-0.8769360688949518 -0.1688611601526349 0.4499655983105527
-0.861193748680908 -0.2569374146791918 0.4385527245051584
-0.8403159756645855 -0.340340815722111 0.4219445345024427
-0.8154291578158223 -0.4179507501785192 0.4004902733013517
-0.7877307121254895 -0.4891230690631914 0.3744849108902423
-0.7583523927156419 -0.5536500588682051 0.3440541538445553
-0.7282627302650595 -0.6116540156125374 0.3090513887558804
-0.6982056627015639 -0.663444329370105 0.2689804349727332
-0.6686565961959838 -0.7093619775666802 0.2229438071494455
-0.6397707873805756 -0.7496175527628292 0.1696079721130599
-0.611298063924509 -0.784109079218354 0.107180357013265
-0.5824377168474595 -0.8121884503778858 0.03340998452987884
-0.5515931398088892 -0.8323437601884809 -0.05430352650676808
-0.5159003374620199 -0.8418540723163489 -0.1585199127269281
-0.470216221948984 -0.8366019284213549 -0.281058566810715
-0.406182621339332 -0.8107967842916598 -0.4214549236919791
-0.3256314172617457 -0.7550841088690163 -0.56904496186645
0 0 0
0 0 0
0 0 0
0 0 0
-0.4149031230917222 0.7651865732755452 -0.4922853913407985
-0.4513517579130587 0.8239674551081607 -0.3425773249229611
-0.4904028482629956 0.8468700953361272 -0.2057087456597788
-0.5240589785594236 0.847100847312756 -0.08821758029590258
-0.5535578703858252 0.8327469498026232 0.01030542227841989
-0.581051101948697 0.8085785406440872 0.09263023552859052
-0.6080387624215967 0.7772166192107539 0.161935759532657
-0.635355750905488 0.7398942267347931 0.2210873199345574
-0.6633456180733082 0.6969746591118633 0.2723947788391732
-0.69198492128275 0.648303444206397 0.3175838675805633
-0.7209511152318019 0.5934468040278544 0.357841277992277
-0.749653729254963 0.5318705806581913 0.3938692316549291
-0.7772487570324199 0.4631017748124439 0.4259355771206743
-0.8026587779403624 0.3868946251460348 0.4539288878540253
-0.8246235767085326 0.3034000714804723 0.4774351823672724
-0.8418028435798588 0.2133133180840764 0.4958481631193413
-0.8529378308496807 0.1179569308639909 0.5085107856934685
-0.8570524329101896 0.01925434016412609 0.5148693015004571
-0.8536446890673537 -0.08043144567435329 0.5146081299142423
-0.8428048550452955 -0.1785766845275787 0.5077305821547639
-0.825212631122467 -0.2728252149826064 0.4945609320454145
-0.8020122361244045 -0.3612728939543672 0.475666132072243
-0.774611546274969 -0.4426354862329174 0.4517198010989221
-0.7444707160254564 -0.5162779185056661 0.4233443797241205
-0.7129320610512352 -0.5821287053492672 0.390965531388156
-0.6811120041580832 -0.6405269647245356 0.3546993730647576
-0.649846950911486 -0.6920477185506848 0.3142751909391457
-0.6196684637559884 -0.737333031982512 0.2689814026541028
-0.5907795440884154 -0.776931093019966 0.2176180300101176
-0.5630066598154794 -0.8111216547030812 0.1584460863358641
-0.5357070167210168 -0.8396848595998804 0.08914779186607187
-0.5076172281194891 -0.8615553762461204 0.00686173284905487
-0.4766728953184491 -0.8742988150160986 -0.091567095237165
-0.4400970660238537 -0.8733204831186168 -0.2088681551665091
-0.3962905671895499 -0.8506287442576295 -0.3455206590050336
-0.3542394169878094 -0.7928036961378707 -0.4959604166082884
0 0 0
0 0 0
0 0 0
-0.2983459174588906 0.7572915846309046 -0.5809467870492322
-0.3770984835099673 0.8242137007057198 -0.4224553340928057
-0.4190908109534389 0.8653790692494332 -0.2747398017750121
-0.4515313165594109 0.880597802853941 -0.1437601466851506
-0.4796706067154279 0.8768527454063256 -0.03233221190456734
-0.5057225865373787 0.8605511668213335 0.06079765413553558
-0.5311613912809648 0.8358376776169406 0.1387189716238861
-0.5569538610322305 0.8049014072929441 0.2047831077484861
-0.5836555540397909 0.7685986973825032 0.2619202867676027
-0.6114943819303322 0.7269522714336515 0.3124340185144617
-0.6404198030488428 0.6794872024384416 0.3579938792567003
-0.670117370696401 0.6254543946392567 0.3996867645011311
-0.6999989904658565 0.5640013834245803 0.4380683198337225
-0.7291836697225461 0.4943384099783524 0.4732026122392335
-0.7564900776972752 0.4159292714466201 0.5047034807681178
-0.780470247517703 0.3287111476408523 0.5318036988930113
-0.7995160549428424 0.2333149658524522 0.553478278343335
-0.8120571270621894 0.1312223818193137 0.568633369489664
-0.8168330682801798 0.02477480329010945 0.5763418670250522
-0.813171813203602 -0.08303116163868163 0.5760706800455102
-0.8011698248794193 -0.1889515880038674 0.5678241004866705
-0.7816901137740344 -0.2899920887225182 0.5521459539888774
-0.756175934777032 -0.3838237403445642 0.5299785769368323
-0.726361989107515 -0.4689972606461461 0.5024339063858895
-0.6939896468576378 -0.5449382755328885 0.4705535526522483
-0.6605987606635008 -0.611787297532467 0.4351155938227987
-0.6274157806887387 -0.6701716862857111 0.3965089520347638
-0.5953185701085025 -0.7209778752767666 0.3546642122421803
-0.5648427292151201 -0.7651555031577276 0.3090141537862923
-0.5361955416834714 -0.8035510143227933 0.2584571694876694
-0.5092520946983142 -0.836741705922852 0.2013097653237264
-0.4835165259422835 -0.8648217452815167 0.135259447096815
-0.4580409855915298 -0.8870774815601599 0.05737592898788933
-0.43131797890674 -0.9014941744234629 -0.03567989002734078
-0.4012111194671416 -0.9041179967990739 -0.1469703557863008
-0.364896129053365 -0.888671826743473 -0.2776926346777813
-0.317039124685973 -0.8479865820182666 -0.4247410389111572
-0.2316512920155555 -0.7811641762125697 -0.5797587504381979
0 0 0
0 0 0
-0.3265529951539193 0.7875185301768275 -0.522664046959548
-0.354711261919453 0.8613539373415786 -0.3636609895131291
-0.3822748711236139 0.897945835295522 -0.2180807185031527
-0.4071411199616171 0.9087107709864997 -0.09209149325274789
-0.4304267374649111 0.902518195831759 0.0139186877218623
-0.4532650156427116 0.8854741632343808 0.1024027921435004
-0.4765131149949557 0.8611993655799514 0.1768358107468413
-0.5007560032009321 0.8314641069385938 0.240646762145336
-0.5263476216996278 0.7968048934136743 0.2967492931131732
-0.5534399510334548 0.7569751062137002 0.347408850164822
-0.5819853992641811 0.7112380494942988 0.3942504686044857
-0.6117124934476251 0.6585597784438794 0.4382999470408784
-0.6420806985403373 0.5977628841876731 0.4800124069746389
-0.6722252109038519 0.527694078987343 0.5192804876239536
-0.7009127409734833 0.4474443497115358 0.5554411611073296
-0.7265436959089384 0.3566361893861126 0.5873200884995609
-0.7472478622647588 0.2557493108675723 0.6133619831156063
-0.7611133371635538 0.1463958652602037 0.6318819024362654
-0.7665436592932092 0.03140209928672792 0.6414239834600527
-0.7626544128187595 -0.08543882876400519 0.6411384040497866
-0.7495447336034481 -0.1999572584192466 0.6310307339050879
-0.7282976792197756 -0.3083541030500925 0.6119642453405763
-0.7007054077657446 -0.4078037771714319 0.5854126842258836
-0.6688606560508837 -0.496716212852284 0.5530808500362903
-0.6347827608226786 -0.5746620353870913 0.5165407937879667
-0.6001747034867011 -0.6420934916805919 0.4769761768013947
-0.5663210263289916 -0.7000084949772017 0.4350501144666322
-0.5340860785097469 -0.749652705005511 0.3908617180282561
-0.5039608157000253 -0.7922925508795226 0.3439418701754466
-0.4761168826892391 -0.8290464730923452 0.2932484603052912
-0.4504417190196084 -0.8607359073186753 0.2371412145093219
-0.4265405154988023 -0.8877022286470002 0.1733434218341273
-0.4037000860326102 -0.9095262029176719 0.09893597294929699
-0.3808253698316706 -0.9245874653489393 0.01049078701501455
-0.3563961089682409 -0.929445477320149 -0.09546160590214994
-0.3285733552062309 -0.9181683652355132 -0.221373899385778
-0.2958904784077957 -0.8819419146874011 -0.3669159084928401
-0.2615611090069219 -0.8089918613969209 -0.5264199411578304
0 0 0
0 0 0
-0.3077510255775208 0.8279836331765212 -0.4687562367028214
-0.3204825133840943 0.8947026076297031 -0.3111240950418702
-0.3384747843560386 0.9255176229212314 -0.1698586177306468
-0.3574161929176939 0.93265010954855 -0.04916745060808737
-0.3766525819455543 0.9249000122182485 0.05189219510129276
-0.3964833312101856 0.9078455173067265 0.1364459042205217
-0.4173297220708412 0.8845901014476343 0.2081736186387167
-0.439536829557205 0.8565242252549192 0.2705062420985146
-0.4633423685384166 0.8239149608820168 0.3263096485732441
-0.4888692553480864 0.7862982908057489 0.3778119228549632
-0.5161031250574528 0.7427196854633238 0.426620479033991
-0.5448465016265867 0.6918862970657339 0.4737463895355154
-0.5746495526571743 0.6322932118362947 0.519599062640274
-0.604723671328105 0.5623824255281329 0.5639461754392447
-0.6338565269329656 0.4807874452339554 0.6058624726535591
-0.6603689652965147 0.3866966566919691 0.6437223977588968
-0.6821787205594481 0.2803173210295178 0.6753179937975206
-0.6970426360997043 0.1633272887911596 0.6981803206875024
-0.7030010892840116 0.03909083190182458 0.7101136355025971
-0.6989230341779349 -0.08761649884155198 0.7098097924277016
-0.6849046094795816 -0.2114512605983675 0.6972761578492284
-0.6622744138685415 -0.3276200540475557 0.673838037603218
-0.6331977815647862 -0.4327422482600828 0.6417123311829385
-0.6001176839883196 -0.525147536395117 0.603389451666694
-0.5652859184081103 -0.6046701271153888 0.5610934572990119
-0.5305002270831203 -0.6721919759457907 0.5164566356809165
-0.4970318970526079 -0.7291654769281287 0.4704008934605243
-0.4656710648388057 -0.7772368031936495 0.4231470325232214
-0.4368181788006694 -0.8179929234185038 0.3742692291740204
-0.4105736874372796 -0.8528007661588393 0.3227384396427716
-0.3868010740765627 -0.8826851316353161 0.2669304918572646
-0.3651530499622134 -0.908185406475352 0.2046033175891638
-0.3450606693200403 -0.9291264934137933 0.1328799974600893
-0.325701329245439 -0.9442371876269163 0.04831953673375853
-0.3060109157931493 -0.9505641687062159 -0.05277386272861072
-0.2849545544622153 -0.9426948472555793 -0.1735722525319635
-0.2627031054692661 -0.9119428849013096 -0.3151939927325386
-0.2444564186334376 -0.8458586184910898 -0.4740930888689036
0 0 0
0 0 0
-0.2585162372590662 0.868705311080455 -0.4225167896948279
-0.2710121560373444 0.9249224973491641 -0.2665910448184166
-0.2864425921801335 0.9492253891148623 -0.1300838269919183
-0.3023074894897412 0.9531016265861632 -0.01440386049707194
-0.3185775699755248 0.9443091456034264 0.08239277540061105
-0.335632004410193 0.9276459398849514 0.1637808530645778
-0.3538276977496668 0.9056931737922603 0.2335076770713808
-0.3734404033424809 0.8795083678085416 0.2949699918740205
-0.394673172395454 0.8491397786073152 0.3509910588291774
-0.4176575342408362 0.8139527490258467 0.4037859661319733
-0.4424312464490833 0.7728160623554259 0.4549834347874263
-0.4688889636787216 0.7242090296013429 0.5056326939431179
-0.4967040138167899 0.6663107312739266 0.5561610666412156
-0.5252224387646693 0.5971367324734668 0.6062747830390144
-0.5533426686862205 0.5147941335395025 0.6548273750268262
-0.5794205269835404 0.4179178432402462 0.6997260386833815
-0.601278786633781 0.3062972729865481 0.7380012203954758
-0.6164303509950243 0.1815698417798034 0.7661892813973631
-0.6225886898200992 0.04765837652794906 0.7810966665239404
-0.6183736889172009 -0.08949164578952853 0.7807721986525992
-0.6038706152572711 -0.2230915549936525 0.7652257432413772
-0.580643935110306 -0.3471636865985483 0.7364305773981165
-0.5511925136012781 -0.45774890039266 0.6976050151333595
-0.5182262343300842 -0.5532007139864416 0.6522350343986065
-0.4841187494622494 -0.6337609958408554 0.6033042653337654
-0.4506531634885084 -0.7008594265138567 0.552908482937698
-0.4190001845098633 -0.756470313662213 0.5021867281484975
-0.389817263789636 -0.8026607734310619 0.4514179700085164
-0.3633798944119031 -0.8413263325780046 0.4001562875278087
-0.3396955734004736 -0.8740518070946642 0.3473332059084974
-0.3185799273513359 -0.9020254396792372 0.2913021387842795
-0.2996895117658724 -0.92593912476018 0.22983240366816
-0.2825121833555971 -0.9458112982326421 0.1600870213075907
-0.2663241283411246 -0.9606688840202494 0.07865592119242007
-0.2501509313717453 -0.9680353127747019 -0.01822483895766339
-0.2328681000536497 -0.9632236467996942 -0.1340621282215851
-0.2139116721384676 -0.9385391612357643 -0.2708985776075468
-0.1963622866515883 -0.8823279002664275 -0.4277140736431244
0 0 0
-0.09064825146884524 0.8280096416594585 -0.5533379869705453
-0.1771305609596877 0.9052464112573485 -0.3862042196556076
-0.2097532640370475 0.9496284965866448 -0.2328288785704912
-0.2283325405697386 0.96844112958896 -0.09993012277300013
-0.243026797956881 0.9699444469753863 0.012072500007734
-0.2569376742725603 0.9606236170480488 0.1057605687812378
-0.2712226866047936 0.9445918123174389 0.1848906768166899
-0.2864141735261925 0.9240189260085167 0.2532902398067776
-0.3028149098022374 0.8997121947581976 0.3143582303755527