# OOMMF: rectangular mesh v1.0
# Segment count: 1
# Begin: Segment
# Begin: Header
# Title: 
# Desc: time = 4.2e-10
# Desc: stepsize = 4.616015266313137e-14
# Desc: step = 2686
# meshunit: m
# valueunit: (none)
# valuemultiplier: 384000.0000000001
# xmin: 0
# ymin: 0
# zmin: 0
# xmax: 9.357999999999999e-08
# ymax: 9.357999999999999e-08
# zmax: 2.3395e-08
# ValueRangeMaxMag: 1
# ValueRangeMinMag: 0
# meshtype: rectangular
# xbase: 1.16975e-09
# ybase: 1.16975e-09
# zbase: 1.16975e-09
# xstepsize: 2.3395e-09
# ystepsize: 2.3395e-09
# zstepsize: 2.3395e-09
# xnodes: 40
# ynodes: 40
# znodes: 10
# End: Header
# Begin: Data Text
0 0 0
0 0 0
0 0 0
0 0 0
0 0 0
0 0 0
0 0 0
0 0 0
0 0 0
0 0 0
0 0 0
0 0 0
0 0 0
0 0 0
0 0 0
0 0 0
-0.8367576771774855 0.02411281454537689 -0.5470421938564142
-0.8465351342458373 0.0426502323407572 -0.5306215451417906
-0.8569830586424453 0.02340982316715056 -0.5148126041377785
-0.8624328782324854 -0.01154005603761067 -0.5060398775297054
-0.8611090621450936 -0.05101606298600635 -0.5058542719094151
-0.8530987324745953 -0.08638157309081086 -0.5145491001649842
-0.8404057935992771 -0.1063551082777981 -0.5314195075719239
-0.8291605369955347 -0.08825652841537295 -0.5519996277909455
0 0 0
0 0 0
0 0 0
0 0 0
0 0 0
0 0 0
0 0 0
0 0 0
0 0 0
0 0 0
0 0 0
0 0 0
0 0 0
0 0 0
0 0 0
0 0 0
0 0 0
0 0 0
0 0 0
0 0 0
0 0 0
0 0 0
0 0 0
0 0 0
0 0 0
0 0 0
0 0 0
0 0 0
-0.7814083365923479 0.2349096708973493 -0.5781163014678605
-0.8093715970045301 0.2646352406595474 -0.524295534372933
-0.8464218566475836 0.2473784724766928 -0.4715654057968573
-0.8831037362015494 0.1991501488731497 -0.424814087938084
-0.9151954424087924 0.1172444344808707 -0.3855788437887057
-0.928380662518119 0.07644945510125274 -0.3636823150458921
-0.9365789149050578 0.03735898138560488 -0.3484598149931978
-0.9402973009054494 -0.005649868814679621 -0.3403073094899711
-0.9390298141989006 -0.05048658957865065 -0.3401089712405341
-0.9328119436753295 -0.09376688386500753 -0.3479506419406341
-0.9221770280356731 -0.1333526742944122 -0.3630517776045467
-0.9063937335148667 -0.1746517957788731 -0.3846389866825706
-0.870342770937246 -0.2562981178766627 -0.4204934432903276
-0.8300372213483231 -0.3058934658049157 -0.4663339991403272
-0.7899191142170221 -0.3251361162830979 -0.5199175885493187
-0.7599272056618156 -0.297447038795983 -0.5779583905494623
0 0 0
0 0 0
0 0 0
0 0 0
0 0 0
0 0 0
0 0 0
0 0 0
0 0 0
0 0 0
0 0 0
0 0 0
0 0 0
0 0 0
0 0 0
0 0 0
0 0 0
0 0 0
0 0 0
0 0 0
0 0 0
0 0 0
-0.7544672466900064 0.3288775398738513 -0.5679953674445981
-0.7923239571805752 0.3573946055316432 -0.494461164111596
-0.8477292787556167 0.3201555261984558 -0.422913122266348
-0.8818434403386683 0.2989036289047885 -0.3647036706138415
-0.912000216148133 0.2655951511050235 -0.3125937002808242
-0.9387633639774829 0.2166719744439321 -0.2679115561976511
-0.959898897156626 0.155447013272962 -0.2333030932114013
-0.9721377797429266 0.1018505613346129 -0.2111269768464385
-0.9790778813947706 0.05107717576415645 -0.1969711254968213
-0.981835284318072 0.0001070348953245496 -0.1897352445160914
-0.9805508249141834 -0.05126905876419926 -0.189450688501115
-0.9752248640922873 -0.1023406325295196 -0.1961195028283446
-0.9656779845607305 -0.1533124086294889 -0.2096695864806084
-0.9506363353610445 -0.2071749581511945 -0.2310175201286124
-0.9262553878181004 -0.2687242966417924 -0.2642691978500593
-0.8963548937330724 -0.3185500256900329 -0.3083403729868198
-0.8633130260732355 -0.3531929414954572 -0.3604793545961527
-0.8264844089744565 -0.3760417779950195 -0.4189464201117933
-0.7678929184848703 -0.4143304006893796 -0.4885394403785288
-0.7276362324383011 -0.3883676797956839 -0.5654343980809012
0 0 0
0 0 0
0 0 0
0 0 0
0 0 0
0 0 0
0 0 0
0 0 0
0 0 0
0 0 0
0 0 0
0 0 0
0 0 0
0 0 0
0 0 0
0 0 0
0 0 0
0 0 0
0 0 0
-0.7584046588221868 0.4095611624150765 -0.5070325706678152
-0.8097991678951356 0.4093191776609458 -0.4203369106744161
-0.8497770548308017 0.3993979871929385 -0.3440351797553807
-0.887979303308907 0.3679685231515153 -0.2758476442979358
-0.9176210615144719 0.3315771329040517 -0.2191533536138149
-0.9422883468435842 0.2878608636852513 -0.1709643078574168
-0.9629607415869952 0.2356490010624022 -0.1310578439488291
-0.9790322519511484 0.1771628567153476 -0.1005443774654746
-0.9897012637865797 0.1188320184085147 -0.07981453414137471
-0.9958759169019893 0.06138781136826454 -0.06680340373091513
-0.9981709665509577 0.004208326785572262 -0.060307640646871
-0.9967957104930405 -0.05295525475564327 -0.0599504173166358
-0.991747362764926 -0.1100807049318879 -0.06572219450468772
-0.9827967039875247 -0.1674249410816872 -0.07797132636457203
-0.9692850100041022 -0.2256314562474565 -0.09786222628266342
-0.9502974466188235 -0.2840455909254511 -0.1274867256837144
-0.9268245242429627 -0.3364284468100834 -0.1667699056747352
-0.8994970203767657 -0.3806229534457775 -0.2145490098870952
-0.8672001816994968 -0.4178758427959859 -0.2708202814929181
-0.8261142056164466 -0.4506240874622452 -0.3383389588526944
-0.7833303035763367 -0.4626163390678273 -0.4151864139473792
-0.7292982496761686 -0.4642225410319593 -0.5026146589755485
0 0 0
0 0 0
0 0 0
0 0 0
0 0 0
0 0 0
0 0 0
0 0 0
0 0 0
0 0 0
0 0 0
0 0 0
0 0 0
0 0 0
0 0 0
0 0 0
-0.653264024472418 0.4991139570992035 -0.5693253658136743
-0.704944493737405 0.5348954925784222 -0.4657682607999392
-0.7854052254033292 0.500040423644215 -0.3648262691074464
-0.8352294303789553 0.4733031615717653 -0.279956989330534
-0.8720932530667155 0.4432024986498395 -0.2074244516590366
-0.9030299450797218 0.4043079000532352 -0.1451621171099978
-0.9284917250890213 0.3594494612304842 -0.09326950874925338
-0.9497425032190673 0.3089837777776914 -0.05018169635838789
-0.9673455899405233 0.253003686355472 -0.01521986574061304
-0.9811629483943967 0.1928376598279126 0.01152847128235062
-0.9909077299174829 0.1310914558092345 0.03028037324069069
-0.9967257591189304 0.06899660853472075 0.04215719534667339
-0.9988196672909139 0.006859111895348669 0.04808559885115858
-0.9972951135403234 -0.05523254203004831 0.04849559577416834
-0.9921610690361803 -0.1171910564117178 0.04338973825789848
-0.9833289287698774 -0.178936154364706 0.0323430132401827
-0.9706189598697912 -0.2401889426475003 0.01442589931891959
-0.9539362927360915 -0.2997880826141192 -0.01151759191286863
-0.9336504379093944 -0.3552476410935195 -0.04578180085017707
-0.9098907517090861 -0.4053536719864186 -0.08824522968070604
-0.8819862546798477 -0.4501570915069336 -0.1394949444310877
-0.8485142922476276 -0.4894826867139001 -0.2010726119063672
-0.8089234213339658 -0.520642786925219 -0.2730823810502825
-0.7558949094801748 -0.5487872186845085 -0.3570090677146434
-0.6714652753620374 -0.5848939410061746 -0.4550092985393245
-0.6164500804514894 -0.5524518113898376 -0.5610581916374087
0 0 0
0 0 0
0 0 0
0 0 0
0 0 0
0 0 0
0 0 0
0 0 0
0 0 0
0 0 0
0 0 0
0 0 0
0 0 0
-0.6319857922189155 0.5451261489363072 -0.5508461129746675
-0.6954721049656956 0.5690636466853135 -0.4387312585578972
-0.7471454767069874 0.5745842563061176 -0.3341056255758555
-0.7992475478969876 0.5517949970407793 -0.2381714475360525
-0.8401324022037382 0.5190115179672937 -0.1574947331965774
-0.8727099919886147 0.4798365849393327 -0.09018936543179644
-0.9000330437672264 0.4344995217065033 -0.03392175944612748
-0.9232530192722977 0.3839840665088962 0.01265302619443555
-0.9430295161861457 0.3287916559629809 0.05090558486889117
-0.9595872818116675 0.2692963965257849 0.08168047137181393
-0.9727909010668035 0.206351618782841 0.1053416927305465
-0.9823847560012033 0.1413075297225656 0.1222798970401989
-0.9882330190237676 0.075211873103379 0.1331866144004361
-0.9902969306745555 0.008684950401824529 0.1386959290428953
-0.9885787261081884 -0.05787649947618609 0.1391488882265809
-0.9831021951134156 -0.1241324150306832 0.1345407652045782
-0.9739155466953419 -0.1896918099067706 0.1245211835769564
-0.96111682741566 -0.2539567114260568 0.1084455290923427
-0.9449109928512661 -0.3159347117798046 0.08560650373333507
-0.925611925899526 -0.3743677819830441 0.0555996982515677
-0.9033525600430161 -0.4285173282314296 0.01808456991817958
-0.8778364374657226 -0.4781564509034495 -0.02774162066111116
-0.8482776879883347 -0.5229691895705109 -0.08323575446362032
-0.8133546130773722 -0.5621615240518331 -0.1497621255908107
-0.7697533771772348 -0.5956433892693364 -0.2295401732681643
-0.714363824772501 -0.6200061289381883 -0.3244637513428662
-0.659216154001641 -0.6172821354858639 -0.4294145171198757
-0.5925352712090799 -0.5959348177759866 -0.5419996728186129
0 0 0
0 0 0
0 0 0
0 0 0
0 0 0
0 0 0
0 0 0
0 0 0
0 0 0
0 0 0
0 0 0
-0.5893717546520875 0.5902666295136152 -0.5515670774266311
-0.658327847407663 0.6182934756377829 -0.429322283734891
-0.7119726949373784 0.6267148678119958 -0.3167386243055915
-0.7562587283425939 0.6175856107774552 -0.2160109931607178
-0.796102232480524 0.5915483394515721 -0.1276393259603509
-0.8302792169000287 0.5547864800108669 -0.05337024996218484
-0.8596056900315114 0.5108926440327968 0.008170920304726586
-0.8852435772301872 0.4613588213049139 0.05909185203428014
-0.9078117059487534 0.4070128698946425 0.1010862516989345
-0.9275346186726595 0.3483139895515089 0.1354876224843975
-0.9443422957527504 0.2856461554541038 0.1631683251330172
-0.9579552254407008 0.2196250575014327 0.1846256216464768
-0.9680164474090731 0.1511426906313653 0.2002499553413878
-0.9742266527780161 0.08110017486028932 0.2104879822093716
-0.976396619157595 0.01026392330838053 0.2157412662796275
-0.9744516620285885 -0.06071264687656216 0.2162358270013609
-0.9684290595688421 -0.1312147056470197 0.2119619248935366
-0.9584805047668102 -0.200592699927731 0.2026763200713477
-0.9448771602918585 -0.2680974161862255 0.1879652292129124
-0.9279990811373964 -0.3328708223651838 0.1673759870055247
-0.9082639489323077 -0.3940945251110173 0.1405208324321033
-0.8859674328397609 -0.4512535298517651 0.1069203429832007
-0.8611429941230924 -0.5040959961809797 0.06572648101808432
-0.8334766866003729 -0.5523338119156503 0.01561963854863366
-0.8022017499653388 -0.5953476550379794 -0.04509458940190768
-0.7659387655389069 -0.6318930957811936 -0.1185281525579222
-0.7236362498220366 -0.6586724451335034 -0.2061581624999369
-0.676387233133567 -0.6697204793039702 -0.3065530793431664
-0.6191817872189038 -0.6641239154464814 -0.4189908582635644
-0.5466896561027639 -0.6389404988555052 -0.5411889308111533
0 0 0
0 0 0
0 0 0
0 0 0
0 0 0
0 0 0
0 0 0
0 0 0
0 0 0
-0.5463188551393707 0.6133500836043401 -0.5703835406651875
-0.6118412835706355 0.6575736668622661 -0.4395988129737727
-0.6649408954990881 0.6761870523884548 -0.3172139273031427
-0.7086319299395574 0.6741037675889124 -0.2083864160461786
-0.7459646376542176 0.6561536485045452 -0.1140138102318528
-0.7794572739114218 0.6255668683038347 -0.03335343201391602
-0.8097639666688274 0.5857550225606742 0.03425451546452665
-0.8373537185916169 0.5391354871883978 0.09039732526418753
-0.8625917545438023 0.4870116329817328 0.1369493860282325
-0.8855826473615991 0.4300475839517679 0.1755062683475094
-0.9061836441241304 0.3686081551481755 0.2072660876269177
-0.9240576450911375 0.3030216491175977 0.2330136234529474
-0.9387384670117674 0.2337845817485454 0.253209122839312
-0.9497214494385737 0.1616235842743929 0.2681547789665366
-0.9565635899084814 0.08740326269603274 0.2781128694100401
-0.9589555118850741 0.0120256283405298 0.2833014480871046
-0.9567591540009329 -0.06361136091362361 0.2838406524762357
-0.9500232764896552 -0.1386147370298471 0.2797172300842506
-0.9389845944849504 -0.2120893583376643 0.2707878051165715
-0.9240516896160981 -0.2831467056000424 0.2568198162632247
-0.9057600294856183 -0.350956264613705 0.2375467728987415
-0.8846858372150214 -0.4148510452180692 0.2126724705095407
-0.861331629537776 -0.4744198492727611 0.1817515627823022
-0.8360278678800772 -0.5294488936656262 0.1440183082949397
-0.8088621779346501 -0.5797250794482447 0.09828941634550514
-0.779615896953197 -0.6247818221129054 0.04297357298548934
-0.7477374885467586 -0.6635671179120465 -0.02381865335584447
-0.7125008835211284 -0.6939606905059681 -0.1037354857996573
-0.672946010998579 -0.7128260338177735 -0.1975416710284748
-0.6262300027717821 -0.7170693840072931 -0.3060187611043713
-0.5692684023380553 -0.7016945581624714 -0.4284369651940076
-0.4999332618282822 -0.6607761942206014 -0.5598585132594409
0 0 0
0 0 0
0 0 0
0 0 0
0 0 0
0 0 0
0 0 0
0 0 0
-0.5799824051568366 0.6688990814264023 -0.4649671263384173
-0.6155468947384719 0.7133851642995298 -0.3349382446588572
-0.6547132979192904 0.7240935689963433 -0.2168847640240871
-0.6904381598100392 0.7142708718086371 -0.1145088169699412
-0.7227697246245609 0.6905463871022454 -0.027379050863241
-0.7528390636916842 0.6565814269847432 0.04619712024039921
-0.781287750518631 0.6147665869445685 0.1079420884829592
-0.8083680594053658 0.5666166364425624 0.1596454441558533
-0.8340704308241494 0.512954282756572 0.2029887194562978
-0.8581624907697069 0.4541740411325783 0.2393388388816885
-0.8802221748630671 0.3904894125131363 0.2696793310479633
-0.8996788076936538 0.3221408353357469 0.2946240404245926
-0.9158682150581166 0.2495538330322491 0.3144968951598274
-0.928111125854897 0.1734102600938503 0.3294519991721676
-0.9358075703640161 0.09462371071216083 0.339574063527322
-0.9385244088811092 0.01426985501855273 0.3449178237959198
-0.9360583108333924 -0.06648422676324882 0.3455064200726642
-0.9284682004812075 -0.1464420591835341 0.3413231958090073
-0.9160749945499198 -0.2244386842627092 0.3323159360710642
-0.8994267526273136 -0.2994091630932414 0.3184111645562848
-0.8792284241510449 -0.3704675348464044 0.2995182528489671
-0.8562437721992421 -0.4369813678433084 0.2754884511695603
-0.8311908225704554 -0.4985980166509332 0.2460118579792539
-0.8046564300026445 -0.5551763188840808 0.2104929561902721
-0.7770336757469289 -0.6066351725286047 0.1679655744681216
-0.7484690478521184 -0.6527542430371378 0.1170725527369927
-0.7188127586906706 -0.6929343728349844 0.05612640098290442
-0.6875646817604445 -0.7259311649093086 -0.01669587401341703
-0.6537420922761719 -0.7496492433847303 -0.103185699973757
-0.615812508280923 -0.7607094707480314 -0.2051732335345123
-0.5734717115596153 -0.7526430780135006 -0.323509803807007
-0.53432377932834 -0.711816572969626 -0.4558675962272994
0 0 0
0 0 0
0 0 0
0 0 0
0 0 0
0 0 0
0 0 0
-0.4589294368405308 0.7262806993026931 -0.5117617783907114
-0.5444399021451054 0.7542119350750832 -0.3670824838405204
-0.5918568890147017 0.769479608002347 -0.240013657516386
-0.6285183357350579 0.7669996454632307 -0.1291365382225759
-0.6604984528472457 0.7500386309534535 -0.0344070612500308
-0.6900917817253432 0.7222806875161218 0.04565020521727048
-0.7185186265446515 0.686235717912544 0.1131879974619329
-0.7463473649542895 0.6434034008873638 0.1702870357730205
-0.7736971132663645 0.5945860451230588 0.218769769091192
-0.8003742465496408 0.5401225649357515 0.2601320439840482
-0.825949071112853 0.4800951020788107 0.2954942044909696
-0.8498014011589714 0.414518254929705 0.3255951395802467
-0.8711609316667056 0.3435091664852361 0.3508277122437949
-0.889162082510725 0.2674268791225655 0.3713134192942058
-0.9029258400386623 0.1869556159097101 0.3870045543275895
-0.9116663602748497 0.1031152091045436 0.3977834853215166
-0.9148031976530978 0.0172083290139579 0.403533125004892
-0.9120542490478178 -0.06927516711013171 0.4041757019115371
-0.9034879215635184 -0.1547797040958771 0.3996909040606574
-0.8895219754424172 -0.2378165767239363 0.3901204058240575
-0.8708673056482023 -0.317091197173921 0.3755573306804825
-0.8484280808281329 -0.3916062507848755 0.3561100054877756
-0.8231804546633911 -0.4607195826009329 0.3318303862942546
-0.7960578818421773 -0.5241358658849723 0.3026110421811398
-0.7678625357275197 -0.5818254049715339 0.268078951720968
-0.7392033819079368 -0.63388878178594 0.2275156533116023
-0.7104448251681966 -0.6803926809906939 0.1798164343046144
-0.681645505305578 -0.7211862987949744 0.1234897871368662
-0.6524625417004059 -0.755696864411989 0.05669991883357142
-0.6219988011712979 -0.7826898988460042 -0.02267186771968871
-0.5886049305742955 -0.7999309533299985 -0.1168533508641818
-0.5495397860527723 -0.8039153499763857 -0.227433800516585
-0.4985321214420858 -0.791126065874779 -0.3543801232912867
-0.4089776141529909 -0.7652374020923852 -0.4971408548496327
0 0 0
0 0 0
0 0 0
0 0 0
0 0 0
-0.3831967589162958 0.7236748263869121 -0.5739816979746986
-0.4581775519797592 0.7808228486973426 -0.4247222737436795
-0.51688487399784 0.8078572039980092 -0.2831903334874896
-0.5588739863611912 0.8136485896241231 -0.1601119607381839
-0.5923666438839248 0.8037547675430852 -0.05549804379845955
-0.6219887968579156 0.7823465188269004 0.03261688309253455
-0.6500687721376528 0.7523299876364501 0.1068184496909704
-0.6777695793328855 0.7154215231786207 0.1697069282725515
-0.7055809389442879 0.6724507696149803 0.2235296424251538
-0.7335480599353511 0.6236715144459992 0.27007607416007
-0.7613933516089245 0.5689982683957018 0.3106785069624557
-0.7885819900017138 0.5081929278959594 0.3462345925546267
-0.8143593717176278 0.4410311294159532 0.3772404492916399
-0.8377860601653363 0.3674612127407468 0.4038400358108916
-0.8577932167777531 0.2877496526909365 0.4259001463093426
-0.8732753089995602 0.2025893172780523 0.4431115020133585
-0.8832214422511291 0.1131421825697029 0.4551029888620803
-0.8868665636100568 0.02099835632102089 0.4615482286633802
-0.8838268441883402 -0.07194975952820844 0.4622481385532144
-0.8741800069335547 -0.1636995880842259 0.4571780400879993
-0.8584633274242337 -0.2523580804816881 0.4464931294917199
-0.8375884121240406 -0.3363396486397681 0.4304895964229625
-0.8126982870205789 -0.4144998424005175 0.409525792745417
-0.7850077488575096 -0.4861818991603133 0.3839140465814395
-0.7556642081823963 -0.5511762921791931 0.3538026277625257
-0.7256491112938183 -0.6096130150769081 0.3190694894961484
-0.6957164847102502 -0.6618173478390385 0.2792424949783121
-0.6663498692349413 -0.7081534507795212 0.2334449440866782
-0.6377118307614599 -0.7488621478749241 0.1803582667554274
-0.6095601529379988 -0.7838789765746581 0.1181954738324172
-0.5811038341516203 -0.81260106408382 0.04469725477172869
-0.5507582926467118 -0.833568447886159 -0.04276617553088285
-0.5156729499221788 -0.8441130534208032 -0.1468147191638678
-0.4707189046600407 -0.8401570501291736 -0.269369344792417
-0.4075428019800132 -0.8159116615660923 -0.4101183061931485
-0.3278057065628392 -0.7619405512256805 -0.5585606637982513
0 0 0
0 0 0
0 0 0
0 0 0
-0.4102202137931366 0.7642856517275959 -0.4975809670383671
-0.4469452348155572 0.8240834003023112 -0.3480323353107388
-0.4862538316309397 0.8479332261809231 -0.2111076861761327
-0.5200626980868748 0.8490068077221979 -0.09339288249091787
-0.5496122349476292 0.8354020658141664 0.005457071494377493
-0.5770787732245241 0.8119146413595222 0.08817428559232016
-0.6039892575904383 0.7811894168379995 0.1579242594906068
-0.6312032105309602 0.7444753494391022 0.2175751849199125
-0.6590860621774484 0.7021415584277352 0.2694490574711577
-0.6876334795725437 0.6540289122340919 0.3152877728882708
-0.7165389501361072 0.5996888515144261 0.3562937191519848
-0.7452239003252972 0.5385634984413685 0.393180234155463
-0.7728505635620052 0.4701495359589362 0.4262175738276021
-0.7983403082815331 0.3941684314325556 0.4552845262414971
-0.8204232322669823 0.3107419196015862 0.4799428917682997
-0.8377413968822628 0.2205469118918777 0.4995482074882369
-0.8490136621388775 0.1249052237885362 0.513395058967134
-0.8532421743323438 0.02576041099571198 0.5208782901657021
-0.8499101695236628 -0.07448587064354797 0.5216364239724164
-0.8391043260686974 -0.1732605682334291 0.5156400929604155
-0.8215125339716116 -0.2681581702298827 0.5031981242676706
-0.7982955697629326 -0.3572342198519496 0.4848792586445035
-0.7708812489899091 -0.4391781662365391 0.4613725590635704
-0.7407484359939158 -0.5133432386150167 0.433324905747192
-0.7092543518689509 -0.5796588065401145 0.4011906434046585
-0.677525697139536 -0.6384744727377691 0.3651154302105193
-0.64640532901981 -0.6903828995917162 0.3248562798625338
-0.616428776161043 -0.7360495837733426 0.2797258910928473
-0.5878023742179717 -0.7760517661090875 0.2285432676380579
-0.5603568388210243 -0.8107049263557954 0.169581058992307
-0.5334559297085986 -0.8398333872137561 0.1005219019905771
-0.505845279418395 -0.8624261014200927 0.018487100353081
-0.4754699105484908 -0.8761120504957715 -0.07972477117624273
-0.4395537789885935 -0.8763610992229504 -0.1969357741640359
-0.3964595876569132 -0.8552238794677756 -0.3337842287211865
-0.3550003194490182 -0.7992577541013852 -0.4849348571714596
0 0 0
0 0 0
0 0 0
-0.2931965272005488 0.7554092926069184 -0.585997096478005
-0.3724839464101213 0.8234168524660256 -0.4280658789738849
-0.414755745976533 0.8656320228232084 -0.280461890891524
-0.447351059965122 0.8817996080536551 -0.1493535415867384
-0.4755369015209918 0.8788894428560419 -0.03765637433436596
-0.5015427083965951 0.8633300864040567 0.05582180186782942
-0.5268647160269008 0.8392971383359028 0.1341412859154737
-0.5524933715686331 0.8090064711046516 0.2006479605765326
-0.5790068460992442 0.7733315315299261 0.2582816573273918
-0.6066540593783374 0.7323009640308462 0.3093641063848184
-0.6354038552633157 0.6854342039721387 0.3555866880826603
-0.6649590642997908 0.6319650347890647 0.398057329551413
-0.6947456209060845 0.5710130481695932 0.4373472545379564
-0.7238912293374098 0.5017518069422066 0.473525725086403
-0.7512155207603167 0.4236040808047107 0.5061964283698587
-0.7752617119960402 0.3364690655171906 0.5345632290599087
-0.7944031260187796 0.2409524862840222 0.5575532016992981
-0.8070443414165579 0.138533308466997 0.5740104123033845
-0.8119003430807682 0.03157813025733698 0.582941381782749
-0.808283059054642 -0.0768662197517022 0.5837551547578421
-0.7962872914381742 -0.1834922491689105 0.5764175083990684
-0.7767884731181545 -0.2852442178645638 0.5614582835844518
-0.7512509749330851 -0.379746464677907 0.5398283016170231
-0.7214320208401661 -0.4655227179831687 0.5126640599340241
-0.6890915646395875 -0.5419900730182073 0.481040098424531
-0.6557816173171632 -0.6092943992732439 0.4457699018587302
-0.6227347072108836 -0.6680774564491873 0.4072763148273649
-0.5908302322049979 -0.7192456701054308 0.3655205914133665
-0.5606030409586004 -0.7637726448649848 0.3199618374492732
-0.5322592279958418 -0.8025329559490623 0.2695198857764128
-0.505673988459724 -0.8361377812587295 0.2125262998947737
-0.4803537196428742 -0.8647235984971154 0.146674477082599
-0.4553551810441741 -0.8876301291069397 0.06902472743752273
-0.4291759317081636 -0.9029073630388147 -0.02379734045482366
-0.3996798865000125 -0.9066694823764414 -0.1349312345403099
-0.3640284655168677 -0.8926830453691379 -0.2657070883584318
-0.3168616245957085 -0.8537394374717808 -0.4131920664339222
-0.2322862991092332 -0.7887363212210159 -0.5691555945722344
0 0 0
0 0 0
-0.3219034138058293 0.7856697531672096 -0.5283003228641152
-0.3502755964015576 0.8606428985535216 -0.3695954649815463
-0.377980992339602 0.8982993173232129 -0.2240283596481006
-0.4028877717387571 0.910003043897057 -0.09785654541965712
-0.4261150621757588 0.9046295352127781 0.008447355069000963
-0.4488101285015479 0.8883159277024621 0.09728453702689566
-0.4718491054294402 0.8647178656826663 0.1721087867444615
-0.4958371616338726 0.8356340312409599 0.2363498994602002
-0.5211481122847054 0.8016188934641634 0.2929365028523718
-0.5479533318557096 0.7624321937347953 0.3441573710745906
-0.5762241831577986 0.7173314446738914 0.3916647663834402
-0.6057074513516342 0.6652642147063594 0.4365111774150093
-0.6358789024240783 0.6050218167317872 0.4791728526643766
-0.6658858589085789 0.5354082476075814 0.5195517599810073
-0.6944997683563807 0.4554646831099657 0.5569757572753696
-0.7201154212414945 0.3647652580219182 0.5902373138241833
-0.7408454672194061 0.2637555199608115 0.6177224452702532
-0.7547524643956641 0.1540415122431152 0.6376675701292369
-0.7602139882768792 0.03848021358038393 0.6485321620328234
-0.7563298937820325 -0.07907102076622841 0.6493942296068279
-0.7432008407796478 -0.194361915514423 0.6402155543736718
-0.7219273646844168 -0.3035191979614824 0.6218496414637793
-0.6943264770391869 -0.4036657327377622 0.595789156913447
-0.6625138459815108 -0.4931867554644883 0.5637749800383107
-0.6285240548043237 -0.5716502328000036 0.5274215807795811
-0.594066671080531 -0.6395198769349036 0.487954011476964
-0.5604258339843273 -0.697812411455869 0.446072553539349
-0.5284614643524405 -0.7477955943502079 0.401908235502699
-0.49865852417406 -0.7907598998870196 0.3550189530140871
-0.4711832227042142 -0.8278504244698015 0.3043846995945094
-0.4459191993398892 -0.8599200560747223 0.2483818931011636
-0.4224702361867901 -0.8873494617940076 0.1847426106510414
-0.4001237901990443 -0.9097697917404698 0.1105435595285981
-0.3777862008561785 -0.9256235559352678 0.02232978146790827
-0.3539351761710231 -0.9315411493403339 -0.08343247661717801
-0.3267175673571452 -0.9216522563716867 -0.2093149528944529
-0.2946241479683756 -0.8871588227735154 -0.3551701488146469
-0.2607637857037484 -0.8162086559111278 -0.5155634568908071
0 0 0
0 0 0
-0.3033405845813478 0.8261937858899543 -0.4747507955787645
-0.3161538477539974 0.8940682605899153 -0.317314812065345
-0.3341720460630228 0.9259340736677099 -0.1759975421736692
-0.3530503536880399 0.9339808371234206 -0.05509304535949672
-0.3721319835131949 0.9270259754574395 0.04626691770280005
-0.3917273633848286 0.9106840818146594 0.1311646900082506
-0.4122735954103818 0.8880955623000812 0.2032652325172667
-0.4341325959032682 0.860680138041242 0.2660048667893084
-0.457558994486498 0.828723635993212 0.3222683690818794
-0.482692818834568 0.791769334766052 0.374311318516635
-0.509537496787402 0.7488576819097355 0.423773184159174
-0.5379139931709861 0.6986772935998312 0.4716975464838234
-0.5673907685135935 0.6396901054980496 0.5185212481021845
-0.5971951492921798 0.5702906474380518 0.564027065934409
-0.6261250130805384 0.4890543296679881 0.6072835669009081
-0.652501644403956 0.3951101364647127 0.6466294024500964
-0.6742310449427455 0.2886203944884633 0.6797872946155561
-0.6890480644940228 0.1712516551548368 0.7041914763924434
-0.6949694020669351 0.0464041874359962 0.7175403693027531
-0.690851113526177 -0.08106651351525561 0.7184378604487111
-0.6767956717009739 -0.2057176521737404 0.7068435939802743
-0.6541536801469957 -0.3226698060664678 0.6840812517553518
-0.6251161939539996 -0.4284896787192055 0.6524004439664162
-0.5921446648652042 -0.5214886253340121 0.614340548489937
-0.5574980519451759 -0.6015066109607307 0.572176300669531
-0.5229712644115767 -0.6694437142071055 0.5275852254454737
-0.4898267800218825 -0.7267746734344522 0.48152704973619
-0.4588435468512641 -0.7751684611107633 0.4342539077683953
-0.4304112822974446 -0.8162347463611973 0.3853660167992772
-0.4046214748697142 -0.8513645467448596 0.3338560627279014
-0.3813312572734244 -0.881610724865504 0.2781168855506431
-0.3601894832311887 -0.9075480259878811 0.2159169208171255
-0.3406256186123533 -0.9290473654147431 0.1443786021572304
-0.3218162844782769 -0.9448964902171637 0.06004083460347179
-0.3026941679283615 -0.952212100972732 -0.04084550725908048
-0.2822100608063908 -0.9456514364228571 -0.1615575512659185
-0.2604898448334566 -0.9165697641858851 -0.3033890375720122
-0.2426173011081287 -0.8524818204357363 -0.4630459923480386
0 0 0
0 0 0
-0.2541275855677154 0.8669411680375527 -0.4287565526207228
-0.2666764255278025 0.9243166344856222 -0.2729879910928071
-0.2820700768413314 0.9496484037065824 -0.136397877873025
-0.2977954113126257 0.9544097251970082 -0.02049315618724434
-0.3138299671496451 0.946384451097026 0.07659779657818429
-0.3305661973469848 0.930410427458786 0.1583111671598462
-0.3483755528380959 0.909107018794806 0.2283832361684431
-0.3675480047092506 0.8835617411990631 0.2902190788413607
-0.3883004596613659 0.8538426019839214 0.3466634737956942
-0.410778743986475 0.8193236866790956 0.3999618981046426
-0.4350361679632128 0.7788704793471691 0.4517790488340437
-0.4609848429841276 0.7309451935699481 0.5032018467135126
-0.488317198907233 0.6736939622949925 0.5546915885595043
-0.5163986736210454 0.6050825533092112 0.6059764958834872
-0.5441443132225212 0.5231539293568006 0.6559092411196308
-0.5699196315282002 0.4264737761577631 0.7023615392719751
-0.5915463324466627 0.3147754763526076 0.742286559258546
-0.6065256634418357 0.1896783971694251 0.7721066799566484
-0.6125559845575871 0.05514530988486115 0.7885012115275328
-0.6082516070379127 -0.08278295884101781 0.789415583999532
-0.5937101445440977 -0.2172008307713685 0.7748109855814211
-0.5705198917391857 -0.3420374452430685 0.746670904201779
-0.5411997247277759 -0.4532861916055123 0.7082615946487214
-0.5084660984059404 -0.5492930727887153 0.6631284543421213
-0.4746854752918735 -0.6303151547008337 0.6143097795912021
-0.4416253711870715 -0.6978052124083073 0.5639458458572756
-0.4104380340089459 -0.7537606162664545 0.513211022489273
-0.3817636693002432 -0.8002691950922689 0.4624129282240994
-0.3558634407605842 -0.8392457339206749 0.4111299181840034
-0.3327341662564395 -0.8722951369811646 0.3583143432862305
-0.3121840392361845 -0.9006295178691127 0.3023368935294358
-0.2938651735757477 -0.9249716265456551 0.2409787331794653
-0.2772631745465455 -0.9453810314902228 0.1714054763969149
-0.2616534828905016 -0.9609384346266997 0.09019301385615838
-0.2460602402048044 -0.9692329750219917 -0.006465162053065699
-0.2293516374410327 -0.9656467731388465 -0.1221643807729956
-0.2109357024744264 -0.9425350602439341 -0.2591018904457927
-0.1937995643051519 -0.8882394294004927 -0.4165002340136431
0 0 0
-0.0854538677764146 0.8248029923967135 -0.5589254513935443
-0.172547413057128 0.9033777830119977 -0.3926015427983187
-0.2053324129592494 0.9489565034362877 -0.2394162792591738
-0.2238579472400671 0.9687936239056123 -0.1064261891514187
-0.2383580571308913 0.9711600091008378 0.005802872051545117
-0.2519665675149046 0.9625788979102031 0.0997733138305776
-0.2658605274295425 0.9472084752953477 0.1792045877859918
-0.2805868257479412 0.9272589087629625 0.2479152059402847
-0.296460123837896 0.9035685926105207 0.3093140692271559