# OOMMF: rectangular mesh v1.0
# Segment count: 1
# Begin: Segment
# Begin: Header
# Title: 
# Desc: time = 7e-10
# Desc: stepsize = 1.0385553858819302e-13
# Desc: step = 4478
# meshunit: m
# valueunit: (none)
# valuemultiplier: 384000.0000000001
# xmin: 0
# ymin: 0
# zmin: 0
# xmax: 9.357999999999999e-08
# ymax: 9.357999999999999e-08
# zmax: 2.3395e-08
# ValueRangeMaxMag: 1
# ValueRangeMinMag: 0
# meshtype: rectangular
# xbase: 1.16975e-09
# ybase: 1.16975e-09
# zbase: 1.16975e-09
# xstepsize: 2.3395e-09
# ystepsize: 2.3395e-09
# zstepsize: 2.3395e-09
# xnodes: 40
# ynodes: 40
# znodes: 10
# End: Header
# Begin: Data Text
0 0 0
0 0 0
0 0 0
0 0 0
0 0 0
0 0 0
0 0 0
0 0 0
0 0 0
0 0 0
0 0 0
0 0 0
0 0 0
0 0 0
0 0 0
0 0 0
-0.8368807430405303 0.02208535153212821 -0.5469395388666206
-0.8464677719265428 0.04063108664357264 -0.5308873947343975
-0.8566575643320316 0.02145213948647138 -0.5154392526614204
-0.8618265400697145 -0.01338839098464785 -0.5070263955834118
-0.860218699983978 -0.05270691002923765 -0.5071940159673058
-0.8519340802379823 -0.08786470997388689 -0.5162248692868907
-0.8389942663972003 -0.1075740649492758 -0.533400826305052
-0.8275729788909358 -0.0891347150248967 -0.554236382049223
0 0 0
0 0 0
0 0 0
0 0 0
0 0 0
0 0 0
0 0 0
0 0 0
0 0 0
0 0 0
0 0 0
0 0 0
0 0 0
0 0 0
0 0 0
0 0 0
0 0 0
0 0 0
0 0 0
0 0 0
0 0 0
0 0 0
0 0 0
0 0 0
0 0 0
0 0 0
0 0 0
0 0 0
-0.7829269670840773 0.233134295678362 -0.5767787828891436
-0.8106887334547143 0.2626511159122408 -0.5232572682339397
-0.8474413305678219 0.2452623899168371 -0.4708391990241682
-0.8837788149775428 0.196981201738344 -0.4244212675616141
-0.9154908747484278 0.115113635133776 -0.3855195316175893
-0.9284266618671488 0.07436415178549452 -0.3639971242516153
-0.9363939011488085 0.03534974357689447 -0.3491659455335852
-0.9398834705982388 -0.007544026856877987 -0.3414119935722695
-0.9383897432274688 -0.0522244071313368 -0.3416098668148572
-0.9319500736930099 -0.09530818018484449 -0.3498362630337883
-0.9210964173310772 -0.134661979999655 -0.365304723651948
-0.905078613834805 -0.1757078549585484 -0.3872459844656017
-0.8686573784522968 -0.25712860857409 -0.4234610224248915
-0.8280228224088196 -0.3063778735000084 -0.4695857793840701
-0.7876278650109518 -0.3251724335903935 -0.5233595653957137
-0.7574517622453274 -0.2969309126328458 -0.5814626909737829
0 0 0
0 0 0
0 0 0
0 0 0
0 0 0
0 0 0
0 0 0
0 0 0
0 0 0
0 0 0
0 0 0
0 0 0
0 0 0
0 0 0
0 0 0
0 0 0
0 0 0
0 0 0
0 0 0
0 0 0
0 0 0
0 0 0
-0.7565097573546606 0.3274367307493675 -0.5661079176123206
-0.7941443315400442 0.3556671889961062 -0.4927835542653831
-0.8491869375181142 0.3182453589758805 -0.4214278546073085
-0.8830363386602774 0.2968213673525426 -0.3635160250778751
-0.912924858577045 0.2633926120872546 -0.3117571723151445
-0.9394102252886285 0.2144134956757792 -0.2674608036615089
-0.9602720320145548 0.1531970164992931 -0.2332558652346226
-0.9722858541644693 0.0996506265707003 -0.2114946108432417
-0.9790263781796847 0.04896456988100599 -0.1977620330719127
-0.9815972809574142 -0.001880932307123453 -0.1909535024833703
-0.9801345779100915 -0.05309604858811338 -0.1910942668144049
-0.9746352910013709 -0.1039735172610448 -0.1981806177279696
-0.9649136139367531 -0.1547232515513376 -0.2121377690768317
-0.9496800240271879 -0.208341212568717 -0.2338841403539706
-0.9250594218788336 -0.2696211382679036 -0.2675247797724867
-0.8949098127123652 -0.3191111557890816 -0.3119366880667855
-0.8616217200120238 -0.3533526992831331 -0.3643485714433981
-0.8245414007710886 -0.3757527817697643 -0.4230145687878066
-0.7655986406317407 -0.4135963032100723 -0.4927441723996256
-0.7251212652328074 -0.3870067965255396 -0.5695830845014721
0 0 0
0 0 0
0 0 0
0 0 0
0 0 0
0 0 0
0 0 0
0 0 0
0 0 0
0 0 0
0 0 0
0 0 0
0 0 0
0 0 0
0 0 0
0 0 0
0 0 0
0 0 0
0 0 0
-0.7606037489379081 0.4082367258776712 -0.5048016568378894
-0.8116969618492352 0.4077071617332675 -0.4182378658085895
-0.8514117567237776 0.3975213511218752 -0.3421619439896398
-0.8893334471257189 0.3658824178035704 -0.2742554943218075
-0.9187285667986661 0.3293268337616073 -0.2179028616439503
-0.9431623825078627 0.285499533559966 -0.1701021356689359
-0.963607952819291 0.2332356844242164 -0.1306171075111584
-0.9794646873604098 0.1747563782072299 -0.1005441917261537
-0.9899442890217998 0.1164825795079171 -0.08026277657983229
-0.995951250740148 0.05913853494553221 -0.06770332217572615
-0.9980950714919833 0.002097765123661229 -0.06165896240529922
-0.9965810994941064 -0.05489272209427656 -0.06174869385013494
-0.9914024566780438 -0.1118155222104046 -0.06795923694063466
-0.9823235623899808 -0.1689322342936874 -0.08063695796593276
-0.9686752382439391 -0.226888181040505 -0.1009457087605909
-0.9495302954083386 -0.285023395909546 -0.130972828807898
-0.9258834796909005 -0.3370856924371986 -0.1706253732291992
-0.8983657268584779 -0.3809165475715475 -0.21872723788365
-0.8658517030691633 -0.4177662780869986 -0.2752674430178139
-0.8244975979848943 -0.4500680169648227 -0.3429905115633534
-0.7814386087723378 -0.4615306909966211 -0.4199322826220123
-0.7270906766119036 -0.4625534680649017 -0.507329712480134
0 0 0
0 0 0
0 0 0
0 0 0
0 0 0
0 0 0
0 0 0
0 0 0
0 0 0
0 0 0
0 0 0
0 0 0
0 0 0
0 0 0
0 0 0
0 0 0
-0.6561345878910204 0.4982397811837225 -0.5667843708316915
-0.7075376429647326 0.5336116820919294 -0.4633023381366981
-0.7875179522098946 0.4984759556947033 -0.3624047413340307
-0.8370173259699445 0.4714565629954784 -0.2777241531351085
-0.8736204142591538 0.4411026949007888 -0.20546480073464
-0.9043191874416301 0.4020006165643559 -0.1435350532336511
-0.9295661658842735 0.3569851351374058 -0.09202367377006287
-0.9506168997397835 0.3064171193625589 -0.04935644730603056
-0.9680304718085397 0.2503929698493068 -0.01484473981515257
-0.9816707112936818 0.1902415720555209 0.01143498360297088
-0.9912560192012019 0.1285643934537591 0.02971028665719885
-0.9969334285282554 0.06658648154593709 0.04110936095623404
-0.9989046889797 0.004607205777195127 0.04656389147499232
-0.9972736101661286 -0.05729160592864327 0.04650826116221583
-0.9920459809875305 -0.119029319019942 0.04094866078562759
-0.9831278669281955 -0.1805313378352588 0.02946240534354592
-0.9703317043541735 -0.2415216152117396 0.01112173145858024
-0.9535538894803589 -0.3008374281539259 -0.01522569140006947
-0.9331587094970979 -0.3559890327953017 -0.0498661349933575
-0.9092688981037838 -0.4057610657289679 -0.09267161636457165
-0.8812020410418034 -0.4502022350571607 -0.1442252072742358
-0.8475204570378887 -0.4891292148368258 -0.2060623354604082
-0.8076684673675482 -0.5198424091120093 -0.2782723782713221
-0.754293135656281 -0.5474987200065985 -0.3623355034949665
-0.6693496156606649 -0.5830949928939118 -0.4604034331724391
-0.6140290932518226 -0.5498634017528655 -0.5662318536192664
0 0 0
0 0 0
0 0 0
0 0 0
0 0 0
0 0 0
0 0 0
0 0 0
0 0 0
0 0 0
0 0 0
0 0 0
0 0 0
-0.634965514175259 0.5445265458953681 -0.5480051428804367
-0.6981189680329134 0.56802186304893 -0.4358681791219471
-0.7494855910502159 0.5731280610959102 -0.331354152520457
-0.801248546964594 0.5499921557574885 -0.2356043178559267
-0.8418550965980125 0.5169099508550387 -0.1551905249652563
-0.8742025920624635 0.4774819126271601 -0.08820913300321155
-0.9013229982658645 0.4319405082350815 -0.03231485947131787
-0.9243586907871487 0.3812733002567938 0.01384490077829048
-0.9439628445032402 0.3259857544628338 0.05164722726969866
-0.9603575492520974 0.2664555133063793 0.08194410914238132
-0.9734088274159484 0.2035372002300408 0.1051088142413567
-0.9828649729072069 0.1385785242788203 0.1215419172171446
-0.9885934563754852 0.07262135784998121 0.1319436106660572
-0.9905573574677364 0.006278122323529079 0.1369551267628388
-0.9887589903757311 -0.06006333275538733 0.1369235370908889
-0.9832200875372665 -0.1260720043911639 0.1318488117959487
-0.9739842983604791 -0.1913649377501566 0.1213838833911781
-0.9611427185760059 -0.2553498366569194 0.1048862977114191
-0.9448918893672347 -0.3170369829237725 0.08165089630009227
-0.9255372196398334 -0.3751688358860581 0.05127572175275789
-0.9032019704495318 -0.4290059105820628 0.01342122430099162
-0.8775776036893538 -0.4783170578875464 -0.03271607611942947
-0.8478642974838446 -0.5227763986819256 -0.0884927682547121
-0.8127272634935765 -0.5615746954319401 -0.155268337483101
-0.7688337777766577 -0.5946018647394047 -0.2352514497258091
-0.713066264178288 -0.6184155206434292 -0.3303009941222333
-0.6575521486344197 -0.6149963689324391 -0.4352064315082816
-0.5904959819601316 -0.5928758141103033 -0.547551608829692
0 0 0
0 0 0
0 0 0
0 0 0
0 0 0
0 0 0
0 0 0
0 0 0
0 0 0
0 0 0
0 0 0
-0.5925162300249104 0.5899578118704313 -0.5485200975079395
-0.6611100035117043 0.6174966721426556 -0.4261823824954519
-0.7144454206677738 0.6254467891084958 -0.3136623262056183
-0.7584582517801288 0.6158927638102596 -0.2131130774795148
-0.7980457266332406 0.5894899948396329 -0.1249982567334114
-0.8320024117702839 0.552418564816769 -0.05104621488623139
-0.8611399012942462 0.5082671178520295 0.01012952660919205
-0.8866086812446404 0.4585275595585023 0.06064258789796882
-0.9090192925721009 0.4040309648478794 0.1021905336898108
-0.9285915506778962 0.3452412655750107 0.1361109861612362
-0.9452544883151374 0.2825469879495647 0.1632824299204175
-0.9587311801196918 0.2165661964071899 0.1842107674378039
-0.9686695177034395 0.1481894256184409 0.199296913189998
-0.9747753579591558 0.07831205077623626 0.2089981440559205
-0.976863398867993 0.007691288291839314 0.2137258618803153
-0.9748606264539068 -0.06303083927999256 0.2137144643901185
-0.9688030654084159 -0.1332516353214694 0.2089608148419464
-0.958838036525663 -0.2023328744171879 0.1992260716916566
-0.9452294959576597 -0.2695344659334711 0.1840988094627074
-0.9283483359320606 -0.3340044920980007 0.1631268415391231
-0.908602031001213 -0.3949275452708779 0.1359212391305664
-0.8862751569261839 -0.451788122094165 0.1019992105366275
-0.8613890067300289 -0.5043290463102101 0.0605077857179329
-0.8336167858118352 -0.552250471243932 0.01012281697945174
-0.8021791306949612 -0.5949141562750757 -0.05085065329954701
-0.7656848225114707 -0.631048710620763 -0.1245161732444818
-0.7230804084174839 -0.657323200179308 -0.2123227106760777
-0.6754837311632144 -0.6677477278157793 -0.312785391172103
-0.6178880379672974 -0.6614184301295249 -0.4251353111915284
-0.5449800968706332 -0.6354141771156584 -0.5470333788127606
0 0 0
0 0 0
0 0 0
0 0 0
0 0 0
0 0 0
0 0 0
0 0 0
0 0 0
-0.5495940646831008 0.6134012518535027 -0.5671730496855988
-0.614773364809208 0.6570757042025519 -0.4362398753757895
-0.6675697028842695 0.6751562616539547 -0.3138705372290685
-0.7110039023672441 0.6725862041918648 -0.205185888280186
-0.7481196101975885 0.6542057875515517 -0.1110488017578828
-0.7814232353908863 0.6232461826946489 -0.03069076323239981
-0.8115656680444973 0.5831159986046853 0.03656362431090297
-0.8390090125303076 0.536230271541681 0.09230911534216167
-0.8641100751296581 0.4838935300180359 0.1384226486746301
-0.8869672095870991 0.4267745539882352 0.176501130833254
-0.9074349083196771 0.3652447187831103 0.2077454754354591
-0.9251771392846958 0.2996386529127911 0.2329462140185879
-0.9397322226062044 0.2304566972322749 0.2525728815538085
-0.9506023165136448 0.1584248102899913 0.2669397222660421
-0.9573517162296752 0.08440153348513578 0.2763224069406101
-0.9596769687725613 0.009277834956584886 0.2809520197222762
-0.957442987458433 -0.06606288316428935 0.2809601773111116
-0.9506976708597773 -0.1407437195295186 0.2763424398003136
-0.9396728237963125 -0.2138849298423326 0.2669610851884676
-0.9247686977602035 -0.2846108353548167 0.2525856845538359
-0.9065100987713031 -0.3520999513388974 0.2329486318757581
-0.8854615278506247 -0.4156898349064972 0.2077494737703223
-0.8621134723802761 -0.4749688363051321 0.1765360169466015
-0.8367845382472162 -0.5297168965446419 0.1385339166612475
-0.809550979949229 -0.579708030833228 0.09255166044271468
-0.7801837711639855 -0.6244555987596321 0.03699308570652508
-0.7481227493095618 -0.6628805859602386 -0.03002799897616818
-0.7126381108624122 -0.6928315758173699 -0.1101423192822445
-0.6727741527131368 -0.7111445020945136 -0.2040794859408138
-0.6256923950026104 -0.7147076251546313 -0.3125732512255705
-0.5683274387605363 -0.6985195273382533 -0.4348268532174977
-0.4985990768667965 -0.6566844017594244 -0.5658308554978637
0 0 0
0 0 0
0 0 0
0 0 0
0 0 0
0 0 0
0 0 0
0 0 0
-0.5829639543701591 0.6687779955340107 -0.4613989820043141
-0.6183177566560084 0.7126563809143902 -0.3313669183033881
-0.6572601525781457 0.7228148223713797 -0.2134193627419554
-0.6927950324334426 0.7125021464502465 -0.1112462778673341
-0.7249726889820918 0.6883455644809938 -0.02439229569795824
-0.7549140794355217 0.6540016747968981 0.04885224695825727
-0.7832510014808983 0.6118576057284071 0.1102185963958455
-0.810226522806771 0.5634279453140359 0.1614990160330763
-0.8358233634587464 0.5095393486510089 0.2043745514314668
-0.8598043085571705 0.4505938942931679 0.2402117678471281
-0.8817462615513103 0.3868145408205994 0.2699963726608872
-0.9010816076717019 0.3184507121269516 0.2943485693215065
-0.9171529934621433 0.245933735751354 0.3136032273475706
-0.9292904750775536 0.1699456811573544 0.3279293801813082
-0.9369039603973033 0.09139334560937633 0.3374288448994437
-0.9395683433660852 0.01133877705539881 0.3421735820883862
-0.9370844542965928 -0.06906969511691827 0.3422018450156457
-0.929510220646723 -0.1486566802347653 0.3375084312055898
-0.9171603806167334 -0.2262775231046897 0.3280477385451308
-0.9005726076193382 -0.3008840973930076 0.3137478897804728
-0.8804390361926776 -0.3716019646893527 0.2945149968798216
-0.8575099162043768 -0.4378041059613457 0.2701930946833185
-0.8324904702567445 -0.4991369025704937 0.240461991641168
-0.8059561365131379 -0.5554518190784785 0.2047143929947892
-0.7782903296808608 -0.6066539568407197 0.1619726500825198
-0.7496315512915687 -0.6525029638795929 0.1108711839773619
-0.7198237539727491 -0.692373919394056 0.04972040787736908
-0.688362690516614 -0.7249925435450925 -0.02329416469300638
-0.6542645208561216 -0.748231834910957 -0.1099411568735336
-0.6159999844322057 -0.758680483204909 -0.2120093007004346
-0.573287412894524 -0.7498387821631369 -0.3302776755713386
-0.5338149876793464 -0.7080459857175705 -0.4622904293170389
0 0 0
0 0 0
0 0 0
0 0 0
0 0 0
0 0 0
0 0 0
-0.4624456152930191 0.7264786281638104 -0.5083039009465581
-0.5474612062255597 0.7538182342135528 -0.3633789997306061
-0.5946071212214866 0.7684986134490677 -0.2363308116170131
-0.631083084288246 0.7654781589340782 -0.1256078378132827
-0.66293234829992 0.7480323261840348 -0.03111817091756644
-0.6924326637200284 0.7198411687737527 0.04863844109367515
-0.7207890196281457 0.6834087416233049 0.1158260810713478
-0.7485564705102287 0.6402321329208713 0.1725283351593591
-0.775843217730025 0.5911159565771135 0.2205656985622307
-0.8024476197343618 0.5364064266725679 0.2614306083973787
-0.8279356524813072 0.4761969762244462 0.2962414474462439
-0.8516871583874843 0.4105155516199478 0.3257391074403279
-0.8729366241219607 0.3394919122772634 0.3503239811444268
-0.8908276460682393 0.2634937168731534 0.3701312823430221
-0.904493462601585 0.1832066259510135 0.3851323257253795
-0.9131610818164378 0.09964267519630238 0.3952318002584765
-0.9162605118902123 0.01408738639363151 0.4003351344752068
-0.9135148382206856 -0.07199369487927418 0.4003842507495317
-0.9049908306470399 -0.1570725347890815 0.3953730077530747
-0.8910978534620874 -0.2396866450323107 0.3853503960662489
-0.8725334633223528 -0.3185624778247194 0.3704096422946828
-0.8501860988288833 -0.3927162881314923 0.3506529828681714
-0.8250164258018883 -0.4615113240202819 0.3261214420398065
-0.7979443737183382 -0.524649973803248 0.2966937502535225
-0.7697614875511163 -0.5820934528299784 0.2619818017641027
-0.7410689414879106 -0.6339274427226951 0.2212528447840867
-0.7122257675462311 -0.6801986304398132 0.1733905395083122
-0.6832867573049763 -0.7207317964565652 0.1168968984539023
-0.6539060495765948 -0.754925912256829 0.04993741413334879
-0.6231837919538429 -0.7815152878956967 -0.02959419252717329
-0.5894684596223521 -0.798233174215863 -0.1238980818726346
-0.5500188544052884 -0.8015494124019484 -0.2345160959865755
-0.4985575028364647 -0.7879487532917371 -0.3613546437386203
-0.4083872092933831 -0.761167413245658 -0.5038293920549647
0 0 0
0 0 0
0 0 0
0 0 0
0 0 0
-0.3869627220142998 0.7244187605568665 -0.5705061885067824
-0.4615393280865305 0.7808888284616261 -0.4209442792261971
-0.5199023970114101 0.8072645570501098 -0.2793303286656847
-0.5616707974483187 0.8124547442434017 -0.1563432245099155
-0.5950322668555759 0.80202257794425 -0.05192673558364452
-0.6245835378616217 0.7801313796669296 0.03592262088479262
-0.6526305121153434 0.7496770006321245 0.1098080569871154
-0.6803176383332943 0.7123684028350389 0.1723344701876681
-0.7081192513533524 0.6690334612459784 0.2257462150203029
-0.7360682736192649 0.6199305923916226 0.271826336450547
-0.7638783040144337 0.5649849720380189 0.3119004937912583
-0.7910098375857005 0.5039739777634108 0.3468626047586681
-0.8167086033127156 0.4366913173043045 0.3772104858908669
-0.8400410756866883 0.363102713939518 0.4030972714977212
-0.8599497924467994 0.283487154607909 0.4244071013107786
-0.8753445229422884 0.1985408565627044 0.4408554121594567
-0.8852306385759657 0.1094168394023727 0.4521002895172515
-0.8888561879054145 0.0176834548783845 0.457844922048741
-0.8858434775736201 -0.07479856354870779 0.4579153940755043
-0.8762671966772199 -0.1660624780696144 0.4523041602780419
-0.8606530189836761 -0.2542485680562607 0.4411734880470768
-0.8398951829453328 -0.3377966937372093 0.4248169904387482
-0.8151175766901018 -0.4155772532615964 0.4035825600077415
-0.7875174632432521 -0.4869377014046937 0.3777670181972294
-0.7582285539795331 -0.5516636912943689 0.3475005491183814
-0.7282229874496218 -0.6098735652371908 0.312642791336735
-0.6982495335971611 -0.6618759577887161 0.2727046118653221
-0.66878929848045 -0.7080146912850949 0.2267952185618097
-0.6400039829966984 -0.7485070221145045 0.1735861157859062
-0.6116506076222743 -0.7832616835394136 0.1112864290661955
-0.58293656480385 -0.8116452982074347 0.03764135109756533
-0.5522742101739567 -0.8321640401599187 -0.04996205601707032
-0.5168089013380228 -0.8421157116945617 -0.1541093365599484
-0.4714070591839627 -0.8373960167757521 -0.2766645905056002
-0.4077157232313951 -0.8122106203550373 -0.4172311076758121
-0.3274941896205384 -0.7571681620827211 -0.5651937102384108
0 0 0
0 0 0
0 0 0
0 0 0
-0.4136778707882655 0.7649446378957572 -0.4936905105170801
-0.4501826708280562 0.8240087788710073 -0.3440132195564994
-0.4892798018149319 0.8471768049560968 -0.2071152738943211
-0.5229534172721564 0.8476439548829433 -0.0895513769507518
-0.5524422366713961 0.8335018504891519 0.009068647785854426
-0.5799036353502059 0.809530004370986 0.09150380172826653
-0.6068439928575067 0.7783586366548642 0.1609291803171155
-0.6341042156653499 0.7412279971708675 0.2202110348858461
-0.6620337019005822 0.6985059813832264 0.2716629741419799
-0.690614923830161 0.6500399555288504 0.3170159037006034
-0.719531448098253 0.595395131908292 0.3574620708516332
-0.7481990028110714 0.5340334510405027 0.393708680831765
-0.7757795138402164 0.4654751096005474 0.4260270745483147
-0.8012005785346166 0.3894649108472726 0.4543068524406395
-0.8232052421975968 0.3061424053859814 0.4781317358666761
-0.8404538156560404 0.2161907939464529 0.4968892475813943
-0.851684950652146 0.120921857375666 0.50991239369275
-0.8559167693220553 0.02225153959619743 0.5166346416752303
-0.8526392397551847 -0.07745975851367014 0.516726535645987
-0.8419337846954302 -0.1756854083972568 0.5101785368522647
-0.8244722039487991 -0.2700616328438604 0.4973050365535394
-0.8013930500498112 -0.3586736481104573 0.478667309812354
-0.7741013287729354 -0.4402257415500589 0.4549378301138254
-0.7440570294754666 -0.5140724042877063 0.4267419595469857
-0.7126044689380925 -0.5801341684738125 0.3945113653859121
-0.6808636164711769 -0.6387453381067514 0.3583701003329957
-0.6496754090491316 -0.6904796538422707 0.3180561436392969
-0.6195766372463466 -0.7359814998125805 0.2728663088622943
-0.5907761406021833 -0.7758051402551458 0.2216076173078949
-0.5631070036141459 -0.810240381130795 0.1625454621505066
-0.5359340029071119 -0.8390818062518125 0.09336202089262531
-0.5080022546126237 -0.8612830683137659 0.01118863461353142
-0.477255763115184 -0.8744324184951676 -0.08714862051710738
-0.4409220550784383 -0.8739576443234899 -0.204415697229793
-0.3973892063718029 -0.8518795802544461 -0.3411495264611935
-0.355573245705317 -0.7947650890217269 -0.4918496927018171
0 0 0
0 0 0
0 0 0
-0.2970446390228886 0.7567258129238899 -0.5823491448284603
-0.3759185785014655 0.8239654535175277 -0.4239883886937136
-0.4179680044232099 0.8654289217420119 -0.2762888501024566
-0.4504320402104552 0.8809142550504457 -0.145262012930995
-0.4785657115691305 0.8774028220757394 -0.03375125958922872
-0.5045867398622553 0.8613097245751303 0.05947924266072019
-0.5299743080441935 0.8367904021813884 0.1375102019131226
-0.5557005692848647 0.8060439716496488 0.2036909253347757
-0.5823263343715229 0.7699344545616127 0.2609539729077457
-0.6100848370104844 0.7284895704219336 0.3116078263400268
-0.6389312096165687 0.6812365782223371 0.3573284677573696
-0.6685572001325162 0.6274256317358011 0.3992096526787657
-0.6983814054154496 0.5662003397730607 0.4378134166637784
-0.7275296648655255 0.4967636672764888 0.4732086702657393
-0.7548269182558542 0.4185688200826024 0.50501135267539
-0.7788298430001004 0.3315397108889909 0.532452341300217
-0.7979321231754166 0.236292741837369 0.5544998349501556
-0.8105613692917453 0.1342961371131594 0.5700480805759931
-0.8154511206527996 0.02788173399184025 0.5781540268265031
-0.8119201169770163 -0.07995713812120922 0.5782668758553386
-0.80005445019014 -0.185972630675725 0.5703744887093941
-0.7807078553713604 -0.2871602227115246 0.5550083342200528
-0.7553170642851168 -0.3811772567141558 0.533104146826474
-0.725613616166018 -0.4665600767733347 0.50577324444432
-0.6933387376500857 -0.5427217991982296 0.4740616453045125
-0.6600343719732034 -0.609793715387235 0.43875534468331
-0.6269304312700623 -0.6683978619488773 0.4002530855467611
-0.5949090119394977 -0.7194192020154349 0.3584958567189375
-0.5645103780059592 -0.7638096181337704 0.3129263497532803
-0.535946895544501 -0.802421405913721 0.2624515431230282
-0.5090992699322129 -0.8358415782945575 0.2053942291023534
-0.483477989508547 -0.86417836866006 0.1394445438187158
-0.4581421841572541 -0.8867371123904951 0.06166873279860902
-0.4315911480002185 -0.9015266354083825 -0.03128588526946306
-0.401692531972881 -0.9046179734326323 -0.1425111641235612
-0.3656185121564187 -0.8897499040398799 -0.273254847769533
-0.3180238343702823 -0.8497392638429634 -0.4204807061638396
-0.2329526386222334 -0.7836127723538605 -0.5759202124972133
0 0 0
0 0 0
-0.3254024045715004 0.7869446220141182 -0.5242436809177019
-0.3536060542944864 0.8611066159910671 -0.3653192497839348
-0.38119501884463 0.8980019483692344 -0.2197336076550421
-0.4060598940680968 0.9090316621675859 -0.09368457507103926
-0.4293179154570059 0.9030681175322293 0.01241380539746354
-0.4521054587782369 0.8862279347795802 0.1009985235497992
-0.4752837600146036 0.862143794923397 0.1755375297235993
-0.4994420763934079 0.8325964966437791 0.239459153310844
-0.5249386913335478 0.7981305941385245 0.2956804441303271
-0.5519302089843622 0.7585048633671174 0.3464728223957947
-0.5803742564585409 0.7129852831646298 0.393468815067786
-0.6100054548531283 0.6605376218783986 0.4377024047599659
-0.6402902945910283 0.5999808393241897 0.4796366657130943
-0.670371684291967 0.5301541931915115 0.5191708161491823
-0.6990240165725454 0.4501371703490089 0.5556455274048125
-0.7246541475915439 0.3595370758510109 0.5878855819518594
-0.7453954795592285 0.2588162468794856 0.6143286818990991
-0.7593353652287363 0.1495700572421982 0.6332760859921258
-0.764871513985524 0.0346124071091379 0.64325232091894
-0.761109420470227 -0.0822679428444149 0.6433851378852503
-0.7481363009072931 -0.1968961841826 0.6336591890906997
-0.7270244676513801 -0.3054600549438145 0.614922416464019
-0.6995586520153846 -0.4051164920068384 0.5886410793467362
-0.6678280766411798 -0.4942578647713675 0.5565202809973687
-0.6338518886377246 -0.572440169808762 0.520138477003677
-0.5993350918220751 -0.6401054884584642 0.4806895165863046
-0.5655654626931838 -0.6982462135064336 0.438848416577492
-0.5334110966946892 -0.7481067564643425 0.394726339196372
-0.5033669237299662 -0.7909560043742052 0.3478654039122347
-0.4756087390307195 -0.8279183201781483 0.2972332122610144
-0.4500284616710717 -0.8598246137137056 0.2411970508485643
-0.4262361992031322 -0.8870298478042599 0.1774845108543804
-0.4035240839792043 -0.9091331658895337 0.1031755800973116
-0.3808021386311057 -0.9245375752822858 0.01483250164764714
-0.3565531874143146 -0.9298289672532316 -0.09103799317582213
-0.3289355436274218 -0.9190982571622135 -0.2169327126551308
-0.2964677050509262 -0.8835364027529526 -0.3625883683630911
-0.2623235963743016 -0.8113371733201684 -0.5224158515723759
0 0 0
0 0 0
-0.3066883778166753 0.8274039345590128 -0.4704731320579748
-0.3194357632469273 0.89445860950309 -0.3128970901824609
-0.3374283480188291 0.9255765814989324 -0.1716103194275724
-0.3563468818116496 0.9329689438320496 -0.05085125040766691
-0.3755365227592741 0.9254417317620987 0.05029832191077813
-0.3952989392199417 0.9085853402476327 0.1349497244853859
-0.4160586026968923 0.8855158988633623 0.2067772520905532
-0.4381639109773429 0.8576346748358525 0.2692120941492784
-0.4618560034917782 0.825217079556371 0.3251242895371798
-0.4872615932532388 0.7878049331209586 0.3767486258642443
-0.5143708970952642 0.7444469754824635 0.4257009289588466
-0.5429921622036575 0.6938507867695241 0.4730016886700389
-0.5726826557157088 0.6345084490421435 0.5190699412762561
-0.6026621510566635 0.5648547891936022 0.5636820014944648
-0.6317274163510767 0.4835113054729585 0.6059185497327411
-0.6582078632564959 0.3896495233706218 0.6441549950783312
-0.6800273483437342 0.2834562583714664 0.6761770146157271
-0.6949441836616351 0.1665885890531295 0.6995004100014168
-0.7009940487846915 0.04239468780388717 0.711905916546882
-0.6970354594402184 -0.0843560536334783 0.7120573182675315
-0.6831512348831765 -0.2083138550043334 0.699935517094842
-0.660657715584308 -0.3246685147335876 0.6768469091157979
-0.6317117621540789 -0.4300176575439273 0.6450000494237357
-0.5987522783435005 -0.522669944617461 0.6068870060991972
-0.5640305063180833 -0.6024430040034036 0.564740661604883
-0.5293458130416753 -0.6702079489055746 0.520206031721115
-0.495972140943864 -0.7274118398719732 0.4742189901528931
-0.4647026498355074 -0.7757000564111594 0.4270138987428648
-0.4359408796683403 -0.8166624678503176 0.3781771582719158
-0.4097904497038135 -0.851672063730447 0.3266901945156406
-0.3861181816787791 -0.8817629175992786 0.2709370903436447
-0.3645804304945715 -0.9074873616107527 0.2086810921409672
-0.3446121447936109 -0.9286877098752443 0.1370460039089823
-0.3253944552158692 -0.9441151254072802 0.05258401365398584
-0.3058654105438728 -0.9508427111087323 -0.04841992734632439
-0.2849873033005907 -0.9434838487844801 -0.1691758376372955
-0.2629156601606553 -0.9133668868262864 -0.3108637735271572
-0.2448078185767213 -0.8480273461616393 -0.470019948646601
0 0 0
0 0 0
-0.2574919969681065 0.8681119978624626 -0.4243576683231018
-0.2699992366166415 0.9246739343061182 -0.2684744446707631
-0.2854177905639128 0.94927863413729 -0.1319346792926514
-0.3012449456152171 0.9534094777917141 -0.01618179218179914
-0.317453199137065 0.9448334738292268 0.08070423216559307
-0.3344245799686117 0.9283620836796408 0.1621852086314052
-0.3525188189120572 0.9065896117395433 0.2320037891905895
-0.3720142647215639 0.8805846267658197 0.2935576637517329
-0.3931165183898375 0.8504040216237689 0.349674710231055
-0.4159600247489778 0.8154194401094489 0.4025771907379033
-0.4405862822523654 0.7745036460358473 0.4539028862743847
-0.4668950088369434 0.7261372845381294 0.5047114965272155
-0.4945662986761025 0.6684974478762933 0.5554415706415049
-0.522954844288577 0.5995933387363852 0.6058102499777169
-0.5509693020264923 0.517520216563366 0.6546798100389578
-0.5769762486680055 0.4208949953646282 0.6999612927512527
-0.5988076699271615 0.3094837589040287 0.7386807005811348
-0.6139812748954625 0.1848986123750029 0.7673587799846563
-0.6202082899135404 0.05104146526192629 0.7827748373232476
-0.6160988363321086 -0.08615120729861857 0.782943288719695
-0.6017239328700063 -0.219883463878597 0.7678408499970557
-0.5786343199342826 -0.3441569005901565 0.7394175759138856
-0.5493191120418053 -0.4549859557896534 0.7008825102538779
-0.516483097134555 -0.5506996577758205 0.6557248640244561
-0.4824984420913003 -0.6315215358741 0.606939703023855
-0.4491488962221311 -0.6988700969651158 0.5566379942030641
-0.4176068153307071 -0.7547146767115008 0.5059746085977029
-0.3885316396941374 -0.80112219483532 0.4552432249894818
-0.3622009638375532 -0.8399914924840663 0.404010834445733
-0.3386244639449397 -0.8729135827067751 0.3512198023233084
-0.3176201313031792 -0.9010856861067928 0.2952321772510597
-0.2988471452791945 -0.9252119356202062 0.2338231338948021
-0.2817962823520505 -0.9453270089306401 0.1641575506603704
-0.2657467048337075 -0.9604787510605648 0.08282063529799387
-0.2497262399051967 -0.9682157431470667 -0.01396709794427354
-0.2326096693323831 -0.9638770525460102 -0.1297450165065875
-0.2138237401515089 -0.9397859901506278 -0.2666115167509149
-0.1964158283283662 -0.8842846727624628 -0.4236288940800253
0 0 0
-0.0894637780252503 0.8269537277737222 -0.5551069847719379
-0.1760989809249817 0.9046092899787701 -0.3881638589581566
-0.2087604496242187 0.9493560272128074 -0.2348237813071934
-0.2273251300929905 0.9684745042229382 -0.1018843456981393
-0.2419711294909049 0.970229893106426 0.01019446004395716
-0.2558080941163025 0.9611203926718598 0.1039702350428933
-0.269997847546381 0.9452743156776718 0.183187418892319
-0.2850754808966909 0.9248753787148258 0.2516694340571127
-0.301345738687793 0.9007422219191761 0.3128165523542726
-0.3190164582362025 0.8727727732626068 0.3694539018956583