# OOMMF: rectangular mesh v1.0
# Segment count: 1
# Begin: Segment
# Begin: Header
# Title: 
# Desc: time = 4.5999999999999996e-10
# Desc: stepsize = 9.762081667172326e-14
# Desc: step = 2942
# meshunit: m
# valueunit: (none)
# valuemultiplier: 384000.0000000001
# xmin: 0
# ymin: 0
# zmin: 0
# xmax: 9.357999999999999e-08
# ymax: 9.357999999999999e-08
# zmax: 2.3395e-08
# ValueRangeMaxMag: 1
# ValueRangeMinMag: 0
# meshtype: rectangular
# xbase: 1.16975e-09
# ybase: 1.16975e-09
# zbase: 1.16975e-09
# xstepsize: 2.3395e-09
# ystepsize: 2.3395e-09
# zstepsize: 2.3395e-09
# xnodes: 40
# ynodes: 40
# znodes: 10
# End: Header
# Begin: Data Text
0 0 0
0 0 0
0 0 0
0 0 0
0 0 0
0 0 0
0 0 0
0 0 0
0 0 0
0 0 0
0 0 0
0 0 0
0 0 0
0 0 0
0 0 0
0 0 0
-0.8357519406495476 0.02314553795324118 -0.5486191554925597
-0.8454597853979856 0.04198159353938941 -0.5323864170681716
-0.855829572763024 0.02305262661132339 -0.5167439586396516
-0.8612099298263778 -0.01156789183790585 -0.5081177428971273
-0.8598328251905173 -0.05069534762298262 -0.5080526492936315
-0.851788254664182 -0.0856934278109585 -0.516830151641866
-0.8390799409310452 -0.1052805313485194 -0.5337235824339471
-0.8278364717428744 -0.08677532635275324 -0.55421730285934
0 0 0
0 0 0
0 0 0
0 0 0
0 0 0
0 0 0
0 0 0
0 0 0
0 0 0
0 0 0
0 0 0
0 0 0
0 0 0
0 0 0
0 0 0
0 0 0
0 0 0
0 0 0
0 0 0
0 0 0
0 0 0
0 0 0
0 0 0
0 0 0
0 0 0
0 0 0
0 0 0
0 0 0
-0.7812742062922309 0.233107121405899 -0.5790264972626894
-0.8091413119603708 0.2630028820093969 -0.5254710470937487
-0.8460626105342264 0.2459407479918448 -0.472960048559306
-0.8826086497614158 0.1979351722177125 -0.4264078317356217
-0.9145683176902742 0.1162856063515091 -0.3873531335004827
-0.9276696292745161 0.07577992712128712 -0.3656315926819966
-0.9358023881451615 0.03699835319859206 -0.3505781114137108
-0.9394709090251828 -0.005682882567406854 -0.3425815464106629
-0.9381702341295322 -0.05017521468313931 -0.3425186996717682
-0.9319356863075804 -0.09309867495073343 -0.3504689905096255
-0.9212983637860171 -0.1323223503981422 -0.3656502707100296
-0.9055231467683095 -0.1732666216731626 -0.3873067369421647
-0.8694814719312044 -0.2545908182306735 -0.4233030654755308
-0.8291996164428064 -0.3038148702802309 -0.4691742967040169
-0.7891208591398037 -0.3226513265936609 -0.5226704421696411
-0.7591711349961032 -0.2945293879773096 -0.5804408905361848
0 0 0
0 0 0
0 0 0
0 0 0
0 0 0
0 0 0
0 0 0
0 0 0
0 0 0
0 0 0
0 0 0
0 0 0
0 0 0
0 0 0
0 0 0
0 0 0
0 0 0
0 0 0
0 0 0
0 0 0
0 0 0
0 0 0
-0.7548755198846463 0.3268473611855172 -0.5686244384169121
-0.792631636851737 0.3554799280928052 -0.4953474628832464
-0.8478783810924445 0.3183689105300335 -0.4239616582710924
-0.8818757035696461 0.2972724497371051 -0.3659567379907645
-0.9119171298485099 0.264149172481802 -0.3140578974743899
-0.938566873719756 0.2154441138671372 -0.2695849724222904
-0.9595986220008027 0.1544727670731737 -0.2351779090112778
-0.9717587824804912 0.1011636736597176 -0.2131918849386693
-0.9786429869600477 0.0507031739261496 -0.1992161946924244
-0.9813660725567185 6.629485202512633e-05 -0.192147410181854
-0.980068465564277 -0.05096168621685315 -0.1920122635261041
-0.9747494357897539 -0.1016773981956839 -0.1988095674853499
-0.9652273282577943 -0.152293823615096 -0.2124683413429247
-0.950224929014887 -0.2058088882562204 -0.233912987654364
-0.9258913458240896 -0.2670185141663463 -0.2672570463438744
-0.8960391067770318 -0.3164891565202245 -0.3113655936858393
-0.863046092134228 -0.3507673592533462 -0.3634744867721406
-0.8262659258538669 -0.3732591056703708 -0.4218557334053981
-0.7677360557979707 -0.411224514658514 -0.491401818445602
-0.7275258701032331 -0.384854837333259 -0.56797258957781
0 0 0
0 0 0
0 0 0
0 0 0
0 0 0
0 0 0
0 0 0
0 0 0
0 0 0
0 0 0
0 0 0
0 0 0
0 0 0
0 0 0
0 0 0
0 0 0
0 0 0
0 0 0
0 0 0
-0.7591712853462428 0.4074665825906141 -0.5075725993172399
-0.810439984255706 0.4073047195308316 -0.4210580688782972
-0.8503069194053108 0.39747703297714 -0.3449494906028114
-0.8883838941864524 0.3661601233356367 -0.2769491300382521
-0.9179094571207325 0.3299106387984014 -0.2204567960756762
-0.9424656714347059 0.2863715406082584 -0.1724813001365103
-0.9630336051510022 0.2343760434805277 -0.1327936202996076
-0.9790131075406768 0.1761470059770958 -0.1024966709159431
-0.9896110153198064 0.1181111779980973 -0.08197431298646406
-0.995739417277597 0.0609926342710872 -0.06915859631560026
-0.9980147554699774 0.004161579856910284 -0.06284289233712077
-0.9966466124729155 -0.05263942806994669 -0.06264679128838274
-0.9916309366207678 -0.109397593724704 -0.06855838405229883
-0.9827354969445433 -0.1663788640339746 -0.08092599488374999
-0.9692964402409548 -0.224232975470007 -0.1009157254746715
-0.9503908145879792 -0.2823054683625219 -0.1306174646799347
-0.9269998905894522 -0.3343519404981554 -0.1699411154849261
-0.8997499494653537 -0.3782179996835916 -0.2177181047879009
-0.867523732942613 -0.4151556300762186 -0.27394958586815
-0.8265004061413318 -0.4475980257770606 -0.3413987199283129
-0.7837587293008583 -0.4592661587826422 -0.4180871316385377
-0.729769225518886 -0.4605455980554261 -0.5053064709632504
0 0 0
0 0 0
0 0 0
0 0 0
0 0 0
0 0 0
0 0 0
0 0 0
0 0 0
0 0 0
0 0 0
0 0 0
0 0 0
0 0 0
0 0 0
0 0 0
-0.6545805228145967 0.4969350838259244 -0.5697191076440127
-0.7061522790044142 0.5327754092923666 -0.4663682258797469
-0.786425883917794 0.4979613265737948 -0.3654707188558094
-0.8361164708858226 0.4712728705267122 -0.2807331982843311
-0.8728627426575246 0.4412394420063397 -0.208370792814918
-0.9036810581248995 0.4024385402546922 -0.1463002614622883
-0.9290270307180147 0.3577095448328606 -0.09461848514289435
-0.9501666667488866 0.3074159547985859 -0.05175650813746618
-0.9676671827106039 0.2516549902798086 -0.01702907431986097
-0.9813967822992437 0.1917560969572857 0.009484459520619756
-0.9910760847487148 0.130321407274018 0.0280093742393049
-0.9968568541026951 0.06857442881360561 0.03967316651548113
-0.998945329957033 0.006810807076306089 0.0454074956808161
-0.997448340434765 -0.0548927111472058 0.04564645032027931
-0.9923734429832896 -0.1164610194641132 0.04039530426758154
-0.9836279085064192 -0.1778250437246307 0.02922997488229946
-0.971025057220358 -0.2387141192632853 0.0112208517748685
-0.9544604540558125 -0.2979707732943014 -0.01478715340989642
-0.9342934501166802 -0.3531096448423432 -0.04908490387465129
-0.9106457140716381 -0.402917972605457 -0.09155048221863064
-0.8828404211108207 -0.4474463499480407 -0.1427744892165377
-0.8494498303319037 -0.4865136997027312 -0.2043022411787498
-0.8099182251588856 -0.5174228552077934 -0.2762355108672578
-0.7569361316643628 -0.5453264222717894 -0.3600927460436263
-0.6725539006561189 -0.5812045702036123 -0.458118432598682
-0.6175759995310056 -0.5483663517375437 -0.5638210967011921
0 0 0
0 0 0
0 0 0
0 0 0
0 0 0
0 0 0
0 0 0
0 0 0
0 0 0
0 0 0
0 0 0
0 0 0
0 0 0
-0.6336132152984909 0.5429707222183779 -0.5511053331376503
-0.6969752759218056 0.5669208141453105 -0.43911986432242
-0.7485385130080621 0.5724588162201952 -0.334635620153401
-0.8005071730560895 0.5496843261129346 -0.2388208690870968
-0.8412693577520288 0.5169233275516162 -0.158291317324901
-0.8737300750004754 0.477791686451516 -0.09116392048107234
-0.9009358096798176 0.432530394475115 -0.03510163374790513
-0.9240385774338028 0.3821338376793804 0.01124444371866368
-0.9437014118132985 0.3271116821891908 0.04925030677005552
-0.9601547749543331 0.2678430191909024 0.07976794596261635
-0.9732708745522718 0.2051819530328892 0.1031705912451055
-0.9828025807571223 0.140474225496483 0.1198585801196667
-0.9886215713648595 0.07475810156201192 0.1305320454253258
-0.9906941884173661 0.008640749212946854 0.135832111406304
-0.9890245381636964 -0.05749632386877074 0.1361052374145234
-0.9836346555151038 -0.1233288749057888 0.1313501164223106
-0.9745672825720016 -0.188480434439982 0.1212177279672377
-0.9619116064718612 -0.2523644738792998 0.1050629985215855
-0.9458612876300937 -0.3139957360578766 0.08217726145481351
-0.9267184730948939 -0.3721193587224089 0.05215414162548379
-0.9046059783347402 -0.425996966912099 0.01464950998289578
-0.8792192450582358 -0.4753982757710339 -0.03114479913489856
-0.8497664011280339 -0.5199990454564343 -0.08659131733786046
-0.8149232031827109 -0.5589929291200512 -0.1530590673831987
-0.7713797470516484 -0.5922746742041437 -0.2327745607554863
-0.7160321987467824 -0.6164101658694706 -0.3276223401580231
-0.6609065357320018 -0.6133951171236356 -0.4323759721765362
-0.5942631236228356 -0.5917407659747795 -0.5446964345262515
0 0 0
0 0 0
0 0 0
0 0 0
0 0 0
0 0 0
0 0 0
0 0 0
0 0 0
0 0 0
0 0 0
-0.5913138374609554 0.5881560951423134 -0.5517430138879372
-0.6601409998377521 0.6161738189390249 -0.4295854806523492
-0.7136823953944171 0.6245771299708532 -0.3171133034444598
-0.7578717688837749 0.6154282537315009 -0.2165143100073817
-0.7976104872382564 0.5893730600670906 -0.1282844757353911
-0.8316801008038275 0.5526051409333288 -0.05418272917628196
-0.8608959834297368 0.5087306070281687 0.007160669472638614
-0.8864185065131787 0.4592550472150538 0.05785354715523956
-0.908867995379471 0.4050187512895138 0.09959306240287932
-0.9284737115943001 0.3464907445959075 0.1337188497844548
-0.9451731416117178 0.2840610230689403 0.1611119720842061
-0.9586964083377741 0.2183461408116661 0.182280441717983
-0.9686970146230123 0.1502328261584175 0.1976263945046753
-0.974885130716272 0.08061072640382573 0.2076075448941199
-0.9770781724987997 0.01022985016302127 0.212634886582722
-0.9752039444238304 -0.06027591202108425 0.2129414971540972
-0.9692973554327824 -0.1303120659861194 0.2085219465894246
-0.9595029121547386 -0.1992478724057014 0.1991342434348663
-0.9460805378561585 -0.2663491575836847 0.1843630715307776
-0.9293965800006081 -0.3307677740786067 0.1637518754526385
-0.9098547068388007 -0.3916896572243517 0.1369073587019676
-0.887738220303021 -0.4485989879035234 0.1033431190992364
-0.8630708361518823 -0.5012379347162657 0.06220341297278185
-0.8355320389761766 -0.5493071220101503 0.0121613137957248
-0.8043523989059986 -0.5921711360006111 -0.04848261607947778
-0.7681539888499115 -0.628565301348749 -0.121840516062292
-0.7258890532148836 -0.6551690986571657 -0.2093765378153825
-0.6786551417679285 -0.6660021579564761 -0.3096261037917655
-0.6214622745039324 -0.6601608349578895 -0.4218676490987432
-0.5490047308351218 -0.6347036975336234 -0.5438244402909834
0 0 0
0 0 0
0 0 0
0 0 0
0 0 0
0 0 0
0 0 0
0 0 0
0 0 0
-0.5485514976532065 0.611300577344505 -0.5704409334547251
-0.6139527524575502 0.6555023249741593 -0.4397484732244888
-0.6669591819967009 0.674079254931182 -0.3174627657249168
-0.7105718131227474 0.6719466254162703 -0.2087472897719573
-0.7478294814155116 0.6539413429120269 -0.114506710529213
-0.7812411537832735 0.6233025120659695 -0.03400350110842984
-0.8114583201353407 0.5834541654531438 0.03341603654692731
-0.8389482822983245 0.5368285519249472 0.08933580170824061
-0.8640759027715247 0.4847445261955545 0.135630301087261
-0.8869483251057838 0.4278807095216011 0.1738987263073988
-0.9074289021910037 0.3666138297563133 0.2053462619573048
-0.9251900728021561 0.3012797234396344 0.2307679731515569
-0.9397777862335579 0.2323763507396849 0.2506370765047735
-0.9507005870480359 0.1606242589638263 0.2652701287722395
-0.9575275040162576 0.08687421510112074 0.2749435393002703
-0.959957687576367 0.01200770352861927 0.2798875722839485
-0.9578561697291607 -0.06310212080432986 0.2802314765720948
-0.9512684255255935 -0.1375883496117752 0.2759670789227683
-0.9404216561984923 -0.2105797736156016 0.2669518074426281
-0.9257100699752423 -0.2812068565549665 0.2529497384321752
-0.9076521398787322 -0.3486511677362057 0.2336877322619605
-0.8868071274926641 -0.4122503759828109 0.2088605901797654
-0.8636628188833494 -0.4715908741550862 0.1780128722652042
-0.8385385220893975 -0.5264501821282982 0.140368631500096
-0.8115149042406845 -0.5766009861846957 0.09473575315617727
-0.7823707447266716 -0.621558057349074 0.03951707403487723
-0.7505559269794149 -0.660247829757475 -0.02717726580461997
-0.7153488828568231 -0.6905284945069712 -0.1069877285927227
-0.6757973900972095 -0.7092475722847996 -0.2006633218750195
-0.6290738700602069 -0.7133036892571647 -0.3089723497330973
-0.5721148656828168 -0.6976955248052759 -0.4311676415634903
-0.5028214508127014 -0.6565016548021227 -0.5622954435567514
0 0 0
0 0 0
0 0 0
0 0 0
0 0 0
0 0 0
0 0 0
0 0 0
-0.5823301999940657 0.6668851000429012 -0.4649255870735019
-0.6178447425535448 0.711336958716001 -0.335063583911492
-0.6569603147305071 0.7219840040862613 -0.2171226444034845
-0.6926390898848472 0.7120797164833836 -0.1148632601680536
-0.7249239809047846 0.6882646871485621 -0.02787368532237068
-0.7549388205386602 0.6542128300539398 0.04552966325936137
-0.7833198972079152 0.612329416696763 0.1070636450247352
-0.8103161961422388 0.5641459335500632 0.1585150716130795
-0.8359175412579146 0.5105027549987768 0.2015658734904813
-0.8598945740771841 0.4518115431776272 0.2375871438526684
-0.8818325810620691 0.3883004386788031 0.2675706790723856
-0.9011725256681082 0.3202197496369468 0.292142757780187
-0.9172653256661286 0.2479975857542642 0.3116432572520493
-0.9294483062737463 0.1723091513274566 0.3262443905014692
-0.9371368316211854 0.09405132987907458 0.3360489639427311
-0.939908633324016 0.01427420063741288 0.3411275541482143
-0.9375641834880553 -0.0658867191878368 0.3415147757784994
-0.9301577622009682 -0.1452681093848244 0.3371998128899907
-0.917997655156636 -0.2227351711012975 0.3281300789037679
-0.9016133775238623 -0.2972461178877192 0.3142261333350444
-0.881688658686368 -0.3679288480541438 0.2953869867028387
-0.8589667149892349 -0.4341549357359318 0.2714510532614132
-0.8341484019211134 -0.495566914480409 0.2420947683136069
-0.8078082884486775 -0.5520116017118345 0.2067098466187641
-0.7803326017871404 -0.6033905394936387 0.1643194676162482
-0.7518661512398077 -0.6494625041046914 0.1135594398625753
-0.7222618967803007 -0.6896058581254115 0.05274005023164277
-0.6910259184032693 -0.7225544032638848 -0.01995781598493839
-0.6571847728168005 -0.7461937990795026 -0.106315514357164
-0.6192188421797383 -0.7571282689339288 -0.2081461262447505
-0.5768400508792649 -0.7488705101834885 -0.3262644857766905
-0.5376722648513601 -0.7077602548659134 -0.4582400650769696
0 0 0
0 0 0
0 0 0
0 0 0
0 0 0
0 0 0
0 0 0
-0.4616675719076541 0.7243999462140114 -0.5119646188693391
-0.5470332620851006 0.7522776009729469 -0.3671961618085362
-0.5943972331355111 0.7674689071123779 -0.2401736993439971
-0.6310346179127173 0.7648895052381672 -0.1293806622809687
-0.6630013355283135 0.7478105668638692 -0.03476471162558995
-0.6925811277253802 0.7199259498007493 0.04514430553379495
-0.7209850984474561 0.6837586033626493 0.1124929337526182
-0.748774130727231 0.6408241012421388 0.1693569379177704
-0.7760622846040416 0.5919431917442195 0.2175559426051633
-0.8026542487766578 0.5374749782943932 0.2585861648043449
-0.8281231399265733 0.4775219741590457 0.2935725281994211
-0.8518568794953775 0.4121170917589552 0.3232636068853686
-0.8730988143979231 0.3413906640590864 0.3480673423207586
-0.8910016328113579 0.2657064421603755 0.368125219079009
-0.9047069804188714 0.1857417757082742 0.3834126658550864
-0.9134483909699934 0.1024965871119055 0.3938356086805013
-0.9166592783957417 0.01724155294108466 0.3992975033520458
-0.9140621079601821 -0.06857357062679617 0.3997350725203874
-0.9057187696177306 -0.1534354154781125 0.3951342602701043
-0.8920301775682895 -0.2358928560330748 0.3855343341131166
-0.8736833271695641 -0.3146789576967411 0.3710183248962403
-0.8515559365233358 -0.3888112630769173 0.3516792411792257
-0.8265996270234076 -0.4576497444530633 0.3275511685321982
-0.7997283924263276 -0.5208904700490904 0.2985089890761057
-0.7717316339519285 -0.5784874172934926 0.2641639513464893
-0.7432123722204647 -0.6305200412751463 0.2237852705805644
-0.7145351924187747 -0.6770316731464696 0.1762599567444507
-0.6857637649976437 -0.7178479988155579 0.1200929190783308
-0.6565638327107706 -0.7523743007803775 0.05344946305979657
-0.6260494451468892 -0.7793569825695904 -0.02578344335604448
-0.59258451019396 -0.7965461582647275 -0.1198241045528287
-0.5534430049068479 -0.8004282408493066 -0.230250888316554
-0.5023722402599593 -0.7874929401260445 -0.3570392155881857
-0.4127991629855378 -0.7614543094137354 -0.4997841391177697
0 0 0
0 0 0
0 0 0
0 0 0
0 0 0
-0.3862540339948932 0.721909962613851 -0.5741548807608794
-0.4611064257615585 0.7790211952917702 -0.424860967149939
-0.519729960540565 0.8059842196410484 -0.2833199707152894
-0.5616924043222549 0.8116720926265131 -0.1602811809851094
-0.595192599262802 0.8016472078458667 -0.05574516961777484
-0.6248382961741185 0.7800876722804595 0.03225410346418254
-0.6529438960679771 0.7499100436829537 0.1062976715220069
-0.6806606655768344 0.7128442119268161 0.1689798445345981
-0.7084685834367727 0.6697366201054397 0.2225424138739266
-0.7364057488793083 0.6208611940545308 0.2687711865782616
-0.7641912758947915 0.566155342869274 0.3089980931767461
-0.7912921578610379 0.5054052072939682 0.3441254093317767
-0.8169620067599366 0.4384093681065641 0.3746602533858906
-0.8402765437450874 0.3651340398618312 0.4007648474679237
-0.8601883960053266 0.285853749305961 0.422331099240285
-0.875617159580671 0.2012550820855087 0.4390796986682849
-0.8855761779982402 0.112476542521285 0.4506704564806595
-0.8893178500908504 0.02106839793011792 0.4568039887286945
-0.8864637985774643 -0.07112806057421958 0.4572993907830648
-0.8770825740417378 -0.1621638544289483 0.452138300334163
-0.8616891209120748 -0.2501925007666006 0.4414697854462179
-0.8411644053141335 -0.3336605543697609 0.4255738216692645
-0.8166189972040874 -0.4114382699887938 0.4047863181902505
-0.7892391099172016 -0.4828672090934378 0.379395421373818
-0.7601511432947008 -0.5477236758899698 0.349526843343023
-0.7303243500094586 -0.606115637547098 0.3150399620748705
-0.7005089577186426 -0.6583427200436771 0.2754488393902448
-0.6711915720962713 -0.7047428974911666 0.2298680534191086
-0.6425429610944162 -0.7455323194749972 0.1769748676118998
-0.6143325544432023 -0.7806244887117592 0.1149822602612841
-0.5857833248408368 -0.8093976135870105 0.04163411411410294
-0.5553264049810758 -0.8303762201958945 -0.04569372893486553
-0.5201290285891464 -0.8408811106267117 -0.149615344835007
-0.475083707101408 -0.8368293852619959 -0.2720515598352874
-0.4118624276392968 -0.8124320676774379 -0.4127026485357552
-0.3321407708350285 -0.7582453099174057 -0.5610227788043635
0 0 0
0 0 0
0 0 0
0 0 0
-0.4133953104479609 0.7625952915261388 -0.4975467200593291
-0.4500701616516771 0.8223548246026076 -0.3480939414061201
-0.4893551589385526 0.8461212008564294 -0.2112118412435649
-0.5231816613566459 0.847070957134501 -0.09355074985984801
-0.552781555101886 0.8333098749881086 0.005215801610734924
-0.5803170844878883 0.8096427291852581 0.0878107768381715
-0.6073009196677065 0.7787254970497772 0.1573918460890992
-0.6345793518530722 0.7418209964923224 0.2168194072606783
-0.6625061635866368 0.6993158174558032 0.2684082164648416
-0.6910678738434699 0.6510724366272249 0.3138946893557666
-0.7199525765751602 0.5966679737125063 0.354479359947232
-0.7485818020582425 0.5355730550262034 0.3908795061871785
-0.7761250956525823 0.4673129591353885 0.4233774133351896
-0.8015196572361017 0.3916331439317671 0.4518735659874795
-0.823519666473827 0.3086684689430889 0.4759612749070719
-0.8407968915107059 0.2190912819593091 0.4950349456304675
-0.8520997734111305 0.1241963723978045 0.5084301694784894
-0.8564521236242406 0.02587779919216727 0.515577442726597
-0.8533434141771035 -0.07352782509296647 0.5161382338266195
-0.842847593973952 -0.1715155051163226 0.5100885852839797
-0.8256231729224627 -0.2657367900562626 0.4977251598463135
-0.8027923461559245 -0.3542834753347379 0.4795911467679589
-0.7757440788039437 -0.4358574503032517 0.4563435188712213
-0.7459253921757211 -0.509803891203703 0.4285968989867509
-0.7146723668966043 -0.5760301103428452 0.3967779227386701
-0.6831018509436187 -0.6348565721121289 0.3610110719679365
-0.6520564889654837 -0.6868451036388162 0.321039154629757
-0.6220788992796537 -0.7326321259941316 0.2761666363490214
-0.5933873483841338 -0.7727692148543335 0.2252092257236883
-0.5658275303743692 -0.8075499897558821 0.1664398387277408
-0.5387799615516798 -0.8367803076413179 0.09754419395366883
-0.5110083734069355 -0.8594332753031612 0.01564888525354011
-0.4804771445036825 -0.8731239560841656 -0.08243949855210608
-0.4444307891029237 -0.8733093384873969 -0.1995296293988869
-0.4012517028136059 -0.852025949975077 -0.3362273807384644
-0.3597672219045453 -0.7958087281683193 -0.4870893287829321
0 0 0
0 0 0
0 0 0
-0.2967064063189912 0.7539292659628264 -0.5861364776005864
-0.3758645880263007 0.8218678863561772 -0.4280875948263957
-0.4181035397610677 0.864007370576207 -0.2805007907818681
-0.4507211382191947 0.880068435511898 -0.1494322735490335
-0.4789743825014521 0.8770148904869636 -0.0377944807014346
-0.5050823075290427 0.8612787502763063 0.05559475643998228
-0.5305279862938501 0.8370433087918414 0.1337854811472374
-0.5562877457691957 0.8065348563546724 0.2001136411941319
-0.5829258116268734 0.770640343918083 0.2575091424881242
-0.6106781743073256 0.7294059716167857 0.3082841157024534
-0.6395026450191096 0.6823737995420608 0.3541219630467636
-0.6690943831965697 0.6288057132379165 0.3961263452159633
-0.6988769233438643 0.5678541703199125 0.4348708857439152
-0.7279832621165259 0.4987276292195674 0.4704371604488855
-0.7552480530794548 0.420880463383926 0.5024539917857396
-0.7792399874302853 0.3342319652080579 0.5301641589383496
-0.7983658522556648 0.2393867721011854 0.5525449658580379
-0.8110651155668108 0.1377935324678579 0.5684947851305453
-0.8160787403388203 0.03175793739101165 0.5770675202952182
-0.8127254200895363 -0.07575578175702885 0.5777010066380942
-0.8010824256302571 -0.1815260349094173 0.5703641345635327
-0.7819873420913972 -0.2825660330869625 0.5555647880799583
-0.7568572506677377 -0.3765389568089015 0.5342148595059264
-0.7274049274448707 -0.4619755278972075 0.5074058367352684
-0.6953571290312863 -0.5382749212329682 0.4761707385770447
-0.6622471666522359 -0.6055506460781248 0.4412902732844342
-0.629302265491248 -0.6644070476488059 0.4031648963912649
-0.5974069060500994 -0.7157145169956891 0.3617426139747357
-0.567107840250213 -0.7604152400187926 0.3164764766517412
-0.5386271146603746 -0.799357916536374 0.2662850965098614
-0.5118578792794576 -0.8331328642831213 0.2095021285594438
-0.4863255341270252 -0.8618594952549997 0.1438251900567486
-0.4611063793308707 -0.884862949098592 0.06632094882401086
-0.4347179716369976 -0.9001803160385821 -0.0263758175701261
-0.4050440280302531 -0.9039154310099152 -0.1373907891351742
-0.3692640293046018 -0.8898319638160572 -0.26803573051552
-0.3220329346872073 -0.8507399680389085 -0.4153748858054626
-0.2374720836038791 -0.7856101094327651 -0.5713350728476856
0 0 0
0 0 0
-0.3255025761818125 0.7842771086873342 -0.5281642639255689
-0.3538318073340139 0.8592074765362424 -0.3695477836261057
-0.3815535533630706 0.8967871346265787 -0.2240306253266825
-0.4065337248090098 0.9083747339837317 -0.09790645153868048
-0.4298833198969464 0.9028459817156893 0.008334541031874544
-0.4527390440112375 0.8863423729730806 0.09708015193765791
-0.4759644925360665 0.8625265528502104 0.1717723710997109
-0.5001511961314308 0.8332066053478431 0.2358294591712878
-0.5256590795972976 0.7989495221441976 0.2921680904932629
-0.552645955035139 0.7595320137241889 0.3430649625236844
-0.581070819869543 0.7142344244013397 0.3901613631514834
-0.6106705411268482 0.6620341118721277 0.4345023877006025
-0.6409155488873234 0.6017590526680243 0.476564058366283
-0.6709551372244394 0.5322545479973283 0.5162599151283126
-0.6995730996975645 0.4526019346198462 0.5529457179126293
-0.7251887098873379 0.3624043545556179 0.5854608602212993
-0.74594978679463 0.262111765852776 0.6122551247499569
-0.7599575735361035 0.1532975282653685 0.6316362515347307
-0.7656191715501427 0.0387446232543016 0.6421262635368178
-0.7620407682352562 -0.07779346654613832 0.642839049926305
-0.7492994469794804 -0.1921737498355102 0.6337346358140786
-0.72844843660346 -0.3006040762273751 0.6156298113034006
-0.7012495555381165 -0.4002456461156976 0.5899597305096521
-0.6697710106301693 -0.4894804803683909 0.5584045600259459
-0.6360166476994112 -0.5678448547042553 0.5225275541395933
-0.6016832678504043 -0.6357577419366788 0.4835176716071846
-0.5680569457775128 -0.6941900435483709 0.4420537182201212
-0.5360092516419501 -0.7443692674315282 0.3982567963735035
-0.5060422788071762 -0.7875535967228203 0.3516824481667923
-0.4783416916043348 -0.8248634707474842 0.3013129281984377
-0.4528113145069818 -0.8571331808170128 0.2455292727903715
-0.4290750004272582 -0.8847289214472581 0.1820697107239944
-0.4064401409709774 -0.9072697620648806 0.1080184736525487
-0.3838327650418004 -0.9231875099617921 0.01993062796078707
-0.3597499671180285 -0.9291034228593927 -0.08571342245843075
-0.3323574203997883 -0.9191414976776918 -0.2114650144870482
-0.3001651368364495 -0.8845033814376577 -0.3571479509297292
-0.2663017481232384 -0.8133355288674472 -0.5172704287202359
0 0 0
0 0 0
-0.3070603836488742 0.8249345264911804 -0.4745492048209305
-0.319882593679062 0.8927701320131496 -0.3172327499587314
-0.3379697618739242 0.924559205146569 -0.1759736236986283
-0.3569753594556048 0.9324863546161606 -0.05511616093492899
-0.3762367048025887 0.9253718381175681 0.04618336473452725
-0.3960550061859525 0.9088352278777694 0.1309922159649471
-0.4168559834192272 0.8860231981395472 0.2029630051170823
-0.4389890149851034 0.8583635366785817 0.2655196482805846
-0.4626955902466004 0.8261531274459164 0.3215335142371337
-0.4881024792332292 0.788950885777668 0.3732458567713874
-0.5152001954524238 0.7458193496439515 0.4222821998408848
-0.5437982131361392 0.6954773738012021 0.4696751280624983
-0.5734566837311507 0.636426109179177 0.5158577705522376
-0.6034007348036561 0.567106801936067 0.5606223581309023
-0.6324356613179182 0.4861434966650958 0.6030668577725034
-0.6589029169848941 0.3927041281592181 0.6415842997732299
-0.6807412530388116 0.2869628990954272 0.6739759943454185
-0.6957243123116111 0.1705526254076806 0.6977674994044093
-0.7018989858136778 0.0467856327947257 0.7107382909888328
-0.6981253703532545 -0.07961097356749214 0.7115357054686481
-0.684475076737414 -0.2033253697840062 0.7001090367417833
-0.662242726876058 -0.3195695576085843 0.6777240356882851
-0.6335597327829199 -0.4249423376016328 0.6465493598401395
-0.6008427587770168 -0.5177356968909602 0.6090465724310865
-0.5663281086761468 -0.5977405293422112 0.567431698889823
-0.5318082148851802 -0.6657993110354916 0.5233462524995303
-0.4985568455448752 -0.7233341146812627 0.4777330115227715
-0.4673717581887939 -0.7719719288923439 0.4308398549922566
-0.4386642442511857 -0.8132916471721724 0.3822700321180177
-0.4125476435491503 -0.8486627946950005 0.3310225108697502
-0.3888999671416307 -0.8791233416094242 0.2754976693090482
-0.3673899446348194 -0.9052372314304119 0.2134717391446153
-0.3474659991592575 -0.9268667186613314 0.1420755618191757
-0.328323163251896 -0.9427917895667336 0.05785794671282605
-0.3089119074573527 -0.9501218808162201 -0.04291672197766
-0.2882004119018434 -0.9435076227031499 -0.1635050105674362
-0.2663327696542869 -0.9142982527403077 -0.3051648093150588
-0.2484166254854546 -0.850001582742731 -0.4645282440468728
0 0 0
0 0 0
-0.2580120624988044 0.865860564124575 -0.4286201804616585
-0.2705974999371102 0.9231955550134977 -0.2729229932253869
-0.2861002094358885 0.9484468300764562 -0.1363645140007533
-0.3020004112294417 0.9530875241479659 -0.02049202114843591
-0.3182690433231172 0.9449048283184522 0.07654855637216901
-0.3352897800887349 0.9287407018714278 0.1581817690361779
-0.353423766421504 0.9072193700891474 0.2281329784653856
-0.3729497721382666 0.8814347606960403 0.2897951519586355
-0.3940730474643995 0.8514640974259998 0.3459990232018702
-0.4169273764772777 0.8166952143908429 0.3989742968348575
-0.4415538763305671 0.7760139625705792 0.4503692975691805
-0.4678527325730192 0.7279117886395777 0.5012566693655947
-0.4955060239937782 0.670574563526428 0.5520901510960119
-0.5238726374222754 0.602017918274679 0.6026042530852652
-0.5518683943545659 0.5203398916541898 0.6516806522107426
-0.5778705492260749 0.4241541622711407 0.6972509411719862
-0.5997250915043307 0.3132139588180571 0.7363605303257651
-0.6149651017404647 0.1891052285217819 0.7655436866613582
-0.6213139132556408 0.05568924622451354 0.7815802767789801
-0.6173839548907333 -0.08114688847847201 0.7824654846916501
-0.6032344119373109 -0.2146513526195647 0.7681360823924609
-0.580392814272619 -0.3388487729168346 0.7404901688972407
-0.5513220001191577 -0.4497497727469811 0.7026871239027007
-0.5187052466962334 -0.5456586498318863 0.658180450114892
-0.4849016066501557 -0.6267647020107192 0.6099478995631608
-0.4516900123376149 -0.6944526234525341 0.560099711242862
-0.4202442418012829 -0.7506643592701588 0.5098017231771449
-0.3912292172317702 -0.7974479682047143 0.4593652550970619
-0.3649303299515215 -0.8366920686455178 0.4083775661653772
-0.3413664520741534 -0.8699852825030976 0.3558012839019967
-0.3203656877166997 -0.8985297775864064 0.3000167744049124
-0.3015982453772373 -0.9230419096463671 0.2388140101035933
-0.2845668032663765 -0.9435765091672963 0.1693667789928519
-0.2685631249553865 -0.959210142746345 0.08825956020020233
-0.252627147551572 -0.9675280713143862 -0.008303947171045547
-0.2356420819464704 -0.9639089030807562 -0.1239049465420397
-0.2170313895222332 -0.9407039014406253 -0.2607173676156507
-0.1998072654439602 -0.8862437344007233 -0.4179103969887158
0 0 0
-0.08967503611469511 0.824067953771549 -0.5593481880408656
-0.1766563361184527 0.9025552309509917 -0.3926660081955218
-0.2094692036993776 0.9480574481561423 -0.2393945022284583
-0.2281243571185241 0.9678023229227632 -0.1063858140663635
-0.2428358840518536 0.9700498504918736 0.005832750418770114
-0.2567258998346386 0.9613211407126462 0.09976711268264113
-0.2709614335131244 0.9457757220641733 0.1791317534735355
-0.2860795304675255 0.9256267796217327 0.2477368908632296
-0.3023851163606588 0.9017174291094472 0.3089804515560804