# OOMMF: rectangular mesh v1.0
# Segment count: 1
# Begin: Segment
# Begin: Header
# Title: 
# Desc: time = 8e-11
# Desc: stepsize = 7.14537437025902e-14
# Desc: step = 510
# meshunit: m
# valueunit: (none)
# valuemultiplier: 384000.0000000001
# xmin: 0
# ymin: 0
# zmin: 0
# xmax: 9.357999999999999e-08
# ymax: 9.357999999999999e-08
# zmax: 2.3395e-08
# ValueRangeMaxMag: 1
# ValueRangeMinMag: 0
# meshtype: rectangular
# xbase: 1.16975e-09
# ybase: 1.16975e-09
# zbase: 1.16975e-09
# xstepsize: 2.3395e-09
# ystepsize: 2.3395e-09
# zstepsize: 2.3395e-09
# xnodes: 40
# ynodes: 40
# znodes: 10
# End: Header
# Begin: Data Text
0 0 0
0 0 0
0 0 0
0 0 0
0 0 0
0 0 0
0 0 0
0 0 0
0 0 0
0 0 0
0 0 0
0 0 0
0 0 0
0 0 0
0 0 0
0 0 0
-0.8343693286030465 0.08605822330728563 -0.5444463294831681
-0.8481137751907988 0.1039841681912542 -0.5195096891273382
-0.8639064114293339 0.08320069387925018 -0.4967326814588519
-0.875143253334106 0.04589329914302245 -0.4816825627294028
-0.8796341478425196 0.003231040887262043 -0.4756399124591507
-0.8771851485915064 -0.03621027571953426 -0.4787849527948965
-0.8694225190971081 -0.0613261516320755 -0.4902484945543819
-0.8616025252091516 -0.05003581542457063 -0.5051113795273385
0 0 0
0 0 0
0 0 0
0 0 0
0 0 0
0 0 0
0 0 0
0 0 0
0 0 0
0 0 0
0 0 0
0 0 0
0 0 0
0 0 0
0 0 0
0 0 0
0 0 0
0 0 0
0 0 0
0 0 0
0 0 0
0 0 0
0 0 0
0 0 0
0 0 0
0 0 0
0 0 0
0 0 0
-0.748758140273068 0.2908335767627048 -0.5956316630286103
-0.7807530904786676 0.3237516330144857 -0.534424449130523
-0.8237386800796803 0.3086050786648209 -0.4756232672639818
-0.8673853283392048 0.2614602148906356 -0.4234161643244527
-0.9075364151355948 0.1796137625343695 -0.3796268582583163
-0.9260969547404448 0.1381521535437765 -0.3510817752200912
-0.9392996382291091 0.09757111658427042 -0.3289317054209932
-0.9479898957747221 0.05225113484358084 -0.3139824460325589
-0.951621844134121 0.004296686454305962 -0.3072416056661066
-0.9501393515810839 -0.04289058138133429 -0.308861798553735
-0.9440335824750518 -0.08712921726475388 -0.3181337684970744
-0.9328708776183194 -0.1336063614345926 -0.3345164657768502
-0.9038275815165259 -0.2197145487047993 -0.3671800920222031
-0.8695448372211518 -0.2753333408209833 -0.4099796671719174
-0.8344074688737491 -0.302096567317675 -0.4609792185148703
-0.8076590270249806 -0.2837519389020473 -0.5168865767597276
0 0 0
0 0 0
0 0 0
0 0 0
0 0 0
0 0 0
0 0 0
0 0 0
0 0 0
0 0 0
0 0 0
0 0 0
0 0 0
0 0 0
0 0 0
0 0 0
0 0 0
0 0 0
0 0 0
0 0 0
0 0 0
0 0 0
-0.7091259537283798 0.3763486800075493 -0.5962399288922121
-0.75132657102514 0.4099069104595195 -0.5171892385086291
-0.814003700826828 0.3767056560154681 -0.4421434425231058
-0.8534445467257674 0.3587652647523314 -0.3780474711874665
-0.8890861309197088 0.3277662537192151 -0.3195232929366696
-0.9216962291294851 0.2801604925628092 -0.2683023660265616
-0.948849349678599 0.2193091443247685 -0.2271308231615355
-0.9662034590194692 0.1651554853690599 -0.1979255956952572
-0.9777895042312128 0.1129189784537697 -0.1765700702843936
-0.9849562430648142 0.05962409401244086 -0.1621917589177741
-0.9879055171076473 0.005116133517051454 -0.1549726248280865
-0.9866530603370262 -0.04982379776253996 -0.1550268612341014
-0.9810926506303297 -0.1052986537917441 -0.1623865893132791
-0.970223951074657 -0.1641369762249971 -0.1781138338164552
-0.9507910284337766 -0.2309282993152031 -0.2065636483634742
-0.9257487802276241 -0.2868165641344667 -0.2464253526834541
-0.8972485169287689 -0.3284619792491247 -0.2950556338334714
-0.8647839381049617 -0.3591032907702227 -0.3509894114552037
-0.812097875092722 -0.404985341808821 -0.4200998859674654
-0.7754451493693593 -0.3891903522414306 -0.4972078941868506
0 0 0
0 0 0
0 0 0
0 0 0
0 0 0
0 0 0
0 0 0
0 0 0
0 0 0
0 0 0
0 0 0
0 0 0
0 0 0
0 0 0
0 0 0
0 0 0
0 0 0
0 0 0
0 0 0
-0.7081568561328743 0.4521818852961068 -0.5422595409230355
-0.7653291829692994 0.4579078490142054 -0.4523180778022559
-0.8103621703442457 0.4533237254875916 -0.3712287068439263
-0.8541380065887509 0.426375045541058 -0.2977458416845735
-0.8888288785795436 0.3935328817909441 -0.2347660442916414
-0.9184530174863927 0.3523574007729085 -0.1796895010586299
-0.9441526741442818 0.3016694591819542 -0.1325566494109897
-0.9652263517326471 0.2436908878276399 -0.09461945418707482
-0.9805286187854788 0.1848413417779402 -0.06631218675606361
-0.9909911816745064 0.1258889124363955 -0.04569966705509076
-0.9972969645282516 0.06627727600454762 -0.03171887810360733
-0.9996920025186377 0.005843268938938617 -0.02411962496355098
-0.9982057081010297 -0.05528447015767028 -0.02299981899726063
-0.992686065491455 -0.1172400017694033 -0.02879509271046528
-0.9826377314228318 -0.1805439260726599 -0.04274318123934629
-0.9673376863851622 -0.24447676210237 -0.06699935291435329
-0.9475926382580065 -0.3029259452913943 -0.1015089335405777
-0.923987521740793 -0.3537854299422672 -0.1451996185527775
-0.8955907334060543 -0.3982668662261145 -0.1982441462026945
-0.8590396499494271 -0.4387546213564638 -0.2637143569339962
-0.8205968836493689 -0.4595591851081809 -0.3397441830666833
-0.7713973124831657 -0.4705939142102783 -0.428354472606506
0 0 0
0 0 0
0 0 0
0 0 0
0 0 0
0 0 0
0 0 0
0 0 0
0 0 0
0 0 0
0 0 0
0 0 0
0 0 0
0 0 0
0 0 0
0 0 0
-0.5894197109700114 0.5293150826166039 -0.6102540025551699
-0.6460260636464183 0.5727616024619462 -0.5045735544345707
-0.7352510367945783 0.5446093951487248 -0.4034928990803149
-0.7911246577092548 0.5242077622123087 -0.3151634464857517
-0.8329764205592494 0.4997256679215486 -0.2375385013269678
-0.8686651710885509 0.4655957629025472 -0.1692377206916135
-0.8986341154728453 0.4245451754169051 -0.1105356075595793
-0.9243182717046963 0.3768652091306028 -0.06006951589441689
-0.9463752866152488 0.3226038496483551 -0.01733704346093254
-0.9646251649356941 0.2630489072020917 0.01742307643815076
-0.9786342150805011 0.2007831037851772 0.04428564449301482
-0.9884769162805764 0.1370704144249224 0.06422684384135424
-0.9943260076785921 0.07229572143890249 0.07803280794371358
-0.9962724643009467 0.00666221192857223 0.08600460341131118
-0.9943325043405808 -0.05960209222028566 0.0880367049289829
-0.9884656254492475 -0.1262642295290775 0.08362446799026899
-0.9785873991816012 -0.192906665731965 0.07178941759873043
-0.9647054691070498 -0.2582763946204866 0.0513484357774337
-0.9472075747482214 -0.3198663799958442 0.02198429639415144
-0.9262940593871937 -0.3764522461067104 -0.01621795132580037
-0.9014758487373857 -0.4280851288718516 -0.06390944047619031
-0.8715830145051098 -0.4746334852782831 -0.1227440567961429
-0.8360946704211786 -0.5135215224956223 -0.1929801752177621
-0.7882929176390892 -0.5496918758220972 -0.276465400466741
-0.7115275957313208 -0.5935506085975498 -0.3760666902908093
-0.6610005730894082 -0.5724432665837313 -0.4851669289207791
0 0 0
0 0 0
0 0 0
0 0 0
0 0 0
0 0 0
0 0 0
0 0 0
0 0 0
0 0 0
0 0 0
0 0 0
0 0 0
-0.5654963163737661 0.5673679638247363 -0.5985879298758648
-0.6347793224954834 0.6002418483101859 -0.4865849723011864
-0.6917883934846065 0.6141274046771014 -0.3798372670823049
-0.7499550113780239 0.5988976313213273 -0.280872049351107
-0.7959399751324595 0.5728930280525527 -0.1956352074523304
-0.8328983942943088 0.5396743247856475 -0.1226046000324505
-0.8642974005154378 0.4994209936973071 -0.05973838394742882
-0.8914744366381721 0.4530331428796694 -0.005856643511596262
-0.9152264578592888 0.400922108477233 0.0402739837675446
-0.9358407351773683 0.343371484758505 0.07936083314470496
-0.9531503870985376 0.2811521754131736 0.111614487564775
-0.9667950926415587 0.2155684877700543 0.1372496846070373
-0.9765294044312128 0.1476892621120287 0.1567743733459798
-0.9822224651923122 0.07822457997133728 0.1706456678613445
-0.9838103550218824 0.007716650208305007 0.1790464706752962
-0.9812872421723209 -0.0633098819085024 0.1818439088959856
-0.9747179853583038 -0.1342645389553949 0.1785997833093426
-0.9642624487260721 -0.2043616761624724 0.1686245394148284
-0.9502123371881341 -0.2724596663504012 0.151202660253353
-0.9329703425007964 -0.3372008686819866 0.1259440914614889
-0.9127967024955245 -0.3977926362561572 0.09253755158676312
-0.8895829067125686 -0.4540057049905613 0.05021027704405053
-0.862771432592097 -0.5055885244890223 -0.002387259515232911
-0.8312571846490928 -0.5518754282949085 -0.06667086780277255
-0.7920758843399213 -0.5929436311126789 -0.145029803040763
-0.7422909024385642 -0.6257260224037184 -0.239731435243196
-0.692382757850217 -0.6330991173432242 -0.3461092663465652
-0.6310320571151988 -0.6227237800906338 -0.462616079057561
0 0 0
0 0 0
0 0 0
0 0 0
0 0 0
0 0 0
0 0 0
0 0 0
0 0 0
0 0 0
0 0 0
-0.5199646637983205 0.6038139747689155 -0.6041898975279731
-0.5950278962306391 0.6418447632661483 -0.4837117970188046
-0.6538799195380665 0.6599060888768684 -0.3700878337477818
-0.7028045987118647 0.6596315288394728 -0.2663680577515892
-0.7471020962375398 0.6416048891893302 -0.1737285928274921
-0.7852247797688002 0.6120206118576291 -0.09408940375223802
-0.8180952370814351 0.5744830241945902 -0.02625715096707307
-0.8471213690975891 0.5304499601984862 0.03175257066207187
-0.8731103245429801 0.4806539210711556 0.08154857040668791
-0.8964076049818114 0.4254220035515303 0.1243765437089072
-0.9169856169419354 0.3649921313418004 0.1609910630444662
-0.9345224678352564 0.2998482231618065 0.1917258464000332
-0.9485486384170188 0.2308019501078297 0.2167624053742763
-0.9586195322494204 0.1587599986588176 0.2363130449546829
-0.9644021747358721 0.08458892585396328 0.2505457223494192
-0.9657062481896206 0.009126192268920691 0.259476694179259
-0.962501474685262 -0.06677149026655142 0.2629305598751863
-0.954931082690916 -0.1421873060523073 0.2605559389235671
-0.9433149335310155 -0.2161162676904769 0.2518942139409186
-0.9281258272688189 -0.2874846324457651 0.2365058875886458
-0.9099040798351675 -0.3553186933671833 0.2140635224487214
-0.8891016319828939 -0.4190169113011273 0.1841822902697682
-0.8659426054806326 -0.4783207077208319 0.1461256465472611
-0.8403276270884855 -0.5330220255689868 0.09867623528575126
-0.8117091489890081 -0.582677101171828 0.04019518898493841
-0.7789285079811201 -0.6263223343208228 -0.03147559348480902
-0.740992541113678 -0.6610549227545933 -0.1180527132928857
-0.6986101826215627 -0.6812942860525886 -0.2185907329452914
-0.6468185852959266 -0.6860701017408792 -0.3330668599741421
-0.5801346863636688 -0.6721689021761783 -0.4600355558269362
0 0 0
0 0 0
0 0 0
0 0 0
0 0 0
0 0 0
0 0 0
0 0 0
0 0 0
-0.4752914130278417 0.6170717416929211 -0.6271527232708647
-0.5464292629520059 0.6723615669685289 -0.4993445542442126
-0.604458663792362 0.7017707329554784 -0.3770246174104314
-0.6523092118986199 0.7097340102794916 -0.2660269285707579
-0.6931662960703387 0.7009532344196908 -0.1678840348237458
-0.7297771225167332 0.6787136149646117 -0.08229933361130669
-0.7628724876403153 0.6464887321251006 -0.008825351933861629
-0.7930827978217099 0.6067128279248613 0.0540298087235748
-0.8209781809948228 0.5606312662382699 0.1081083236689274
-0.8468356386616429 0.5087722901220627 0.1549843795241256
-0.8706211922254313 0.4513088385653993 0.1958036564539034
-0.8920252786072783 0.3883547696495466 0.231239000205533
-0.9105213646991631 0.32021058056706 0.2615645781050621
-0.9254658721050567 0.2474751782812538 0.2868256538447838
-0.9362278625933024 0.1709960308066011 0.3069816716880081
-0.9423006240332024 0.09178853419334015 0.3219385017938594
-0.9433793610179798 0.01098381876075836 0.3315339152043693
-0.9394081606404818 -0.07020523654977748 0.3355346963922746
-0.9305970390947526 -0.1505269076211737 0.3336627053029537
-0.9174041173872268 -0.2287493357569328 0.3256430972579102
-0.9004741058420406 -0.3037555488582092 0.3112538373190358
-0.8805326197267103 -0.3746742613613749 0.2903127683559992
-0.8582566834895133 -0.440987200780141 0.2625371478356464
-0.834166483479799 -0.5024735301844705 0.2273469359874937
-0.8085427189058392 -0.5590158075372572 0.1837389415116487
-0.7813528031846156 -0.610344288340817 0.1302599195657826
-0.7522070632741843 -0.6557064632495381 0.06506587441361932
-0.7204625764639196 -0.6933602336699192 -0.01361110870447173
-0.6851188713390939 -0.7205474692928842 -0.106880665373424
-0.6433440509770636 -0.734445675042753 -0.2160971598226496
-0.5918760628482372 -0.7301773665537498 -0.3413557376109266
-0.5280008868168005 -0.7015183123360591 -0.47863046390492
0 0 0
0 0 0
0 0 0
0 0 0
0 0 0
0 0 0
0 0 0
0 0 0
-0.5148303402157192 0.6738209398535503 -0.5300142090625912
-0.5537016468951241 0.7301591468375397 -0.4003524778430912
-0.5963221868637151 0.7519719787284272 -0.2809590586924175
-0.6349135032480538 0.7523655234427685 -0.1755874782778424
-0.6695076023243214 0.7380180385023786 -0.08419587445379444
-0.7014277806750069 0.7127203318742629 -0.005366286460330366
-0.7315151761481633 0.6789534913065398 0.06251162857885835
-0.7602364809805372 0.6382362035233273 0.1212231062894304
-0.7877933654016012 0.5912937595443281 0.1724914587831903
-0.8141285592184507 0.5383260985726663 0.2177147231135756
-0.8389302960292159 0.4792793588030125 0.2578512257673108
-0.8616516879072502 0.4140925276073509 0.2934003191994534
-0.8815526630365685 0.3429107062452689 0.3244644045739137
-0.8977831725629896 0.2662203846584109 0.350873313113238
-0.9095049615738524 0.1848852097571935 0.3723146305016538
-0.9160266347112347 0.1001084488595896 0.3884243851337562
-0.9169214622465593 0.01335632731139973 0.3988441306981732
-0.9121057680172119 -0.07375180500328918 0.403266337807271
-0.90186205793311 -0.1595754854559346 0.4014729043187822
-0.8867994957777613 -0.242599440100659 0.3933600970499608
-0.8677587374659499 -0.3215711301912581 0.3789284652530304
-0.8456803271934616 -0.3956114500898119 0.3582127367302778
-0.8214729111323116 -0.4642488064321219 0.3311424195148585
-0.7959079233164622 -0.5273466243871167 0.2973821032772298
-0.7695477391844598 -0.5849367011587893 0.2562134515468679
-0.7426869596877731 -0.637009696800669 0.2064817815005746
-0.7153010274088306 -0.6832625020324256 0.146617848518727
-0.6869809729280614 -0.7228172152493085 0.07478245899974328
-0.6567974343884903 -0.7539865776373103 -0.01101684725646924
-0.6232310217742969 -0.7738240568314586 -0.1130461081464928
-0.5857411840811493 -0.7763079648204395 -0.2329231826752319
-0.5508671493069277 -0.7483156341989256 -0.3695525611167079
0 0 0
0 0 0
0 0 0
0 0 0
0 0 0
0 0 0
0 0 0
-0.3871326590675577 0.7208332044976795 -0.574915468201098
-0.4802625511539024 0.7611480277787239 -0.4358916858208053
-0.5317598088455606 0.7883863746286843 -0.3093193010408048
-0.5710654645589975 0.7970285148897812 -0.1965446047099877
-0.6047358903085165 0.790321387809615 -0.09842056158877216
-0.6353414834697189 0.7721061261524945 -0.01390429215330893
-0.6643750411251872 0.7450683654406077 0.05898250206261294
-0.6926695625970954 0.7108081092832418 0.1223139764243271
-0.7205996354225156 0.6701136283806213 0.1779996923803401
-0.7482094586270689 0.6231835015517613 0.2276508937269385
-0.7752681655431349 0.5698399011178851 0.2724734089582699
-0.8012887833935559 0.5097404762846778 0.313210683797255
-0.8255389721617843 0.4425935811425885 0.3501375834917512
-0.8470740357152925 0.3683649678084746 0.3831094210646199
-0.8648151683318654 0.2874485931931442 0.4116649498006951
-0.8776834227426797 0.2007620916876726 0.435162489173739
-0.8847699398933535 0.1097501788952088 0.4529205798962777
-0.8855039894149088 0.01628627642156585 0.4643462521982926
-0.8797711054102947 -0.07751280690647169 0.4690357841898926
-0.8679440576271622 -0.1695292776574326 0.4668328789263301
-0.8508170402741011 -0.2578838523375254 0.457827787145751
-0.8294642812408941 -0.3411252938589246 0.442292369406469
-0.8050692298422414 -0.4183259692978736 0.4205554881014086
-0.7787679889041549 -0.4890754027027279 0.3928430601771424
-0.751538330617795 -0.5533723232930078 0.3591228333391182
-0.7241292083346381 -0.6114601689501021 0.3189880114113414
-0.6970151768417905 -0.6636332013820927 0.2715894277683906
-0.670343467278105 -0.7100367798117925 0.2156093856771261
-0.6438508265628896 -0.7504485042872227 0.149275435177237
-0.6167190356007863 -0.7840304469568714 0.07038387153492001
-0.5873805465644997 -0.8089673968184717 -0.02357635260879589
-0.5531521271481865 -0.8221106938361376 -0.1347469157780621
-0.5079128527447491 -0.819978372726506 -0.2639318136895996
-0.4264316794700552 -0.8054074994174626 -0.4116731502374878
0 0 0
0 0 0
0 0 0
0 0 0
0 0 0
-0.3099805410066653 0.7055614794237451 -0.6372558849870205
-0.3909588928810664 0.776022854922589 -0.4949138033183195
-0.4548001033632259 0.8162242623147034 -0.3562791315662716
-0.4999180750350841 0.8341948957452088 -0.2328106401474291
-0.5350078699371259 0.8354208200536143 -0.1258516290172095
-0.5651346619543467 0.8242903673683631 -0.03417900117724996
-0.5929813124467969 0.8039874278950648 0.04446772847303182
-0.6200289071832512 0.7764529101690186 0.1126278497850515
-0.6470655050311647 0.7426299486523918 0.1726470143480874
-0.6744237323450251 0.7027467056097344 0.2264943641781643
-0.7020984888246296 0.656542581026618 0.2756982975810286
-0.7297963744204519 0.603455195817085 0.3213083853934199
-0.7569418312291929 0.5428061840790491 0.3638688096841181
-0.782673444323291 0.4740056292304915 0.4034116297393041
-0.8058618409133774 0.396780914771689 0.4394901580611827
-0.8251866829180721 0.3114002612899258 0.4712714882137837
-0.8392912457492097 0.2188424150145488 0.497692879393848
-0.8470049757821986 0.120846116021562 0.5176666758085742
-0.8475808986921151 0.0197951260943399 0.5302968726620731
-0.8408696922044792 -0.08156669756553749 0.535056104142543
-0.8273619453748279 -0.1805166836379906 0.5318702269105887
-0.8080824970254051 -0.2747218876953156 0.5210859453317732
-0.7843843078290662 -0.3624865049056268 0.5033336779839186
-0.7577162188053772 -0.4428414766423924 0.4793303227675735
-0.7294324000909214 -0.5154818669331301 0.449674124851244
-0.7006685264519164 -0.5806110414415986 0.4146738894550771
-0.6722818341039346 -0.6387393128326458 0.3742315136061209
-0.6448207968379791 -0.6904881909831111 0.3277685129448885
-0.6184968465405686 -0.7364013699119313 0.2741800014793245
-0.5931189380622939 -0.7767575772705956 0.211796108237547
-0.5679683999305087 -0.8113377733949382 0.1383579204199073
-0.5415611803135099 -0.8391082901185472 0.05107607494478571
-0.5111754630451656 -0.8578371736176674 -0.05305685196288851
-0.4718389945939752 -0.8638044695873817 -0.1766629601852293
-0.4153113575262191 -0.8513359137532782 -0.3205364850740068
-0.3419594380407349 -0.8105696552582738 -0.475437247919583
0 0 0
0 0 0
0 0 0
0 0 0
-0.3441745293847789 0.7464308840335234 -0.5695479160559697
-0.3841539168521654 0.8202202544759893 -0.4238684964873915
-0.4264721216867597 0.8574042856125424 -0.2880614872509658
-0.4619626123560612 0.8706153654656885 -0.1691727820904071
-0.4918465711383988 0.8680453682241082 -0.06770664047249422
-0.5185686126371454 0.8548349261320888 0.01854300548270703
-0.5439685515297532 0.8339853880909505 0.09255586095655047
-0.5692130821991451 0.8070119462778471 0.1572519812854189
-0.5949702652128145 0.7744161677802557 0.2151510692353985
-0.6215406347961613 0.7360160056311756 0.2682679234495127
-0.6489259831898616 0.6911676550989642 0.3180917177263028
-0.6768428450331041 0.6389366647713054 0.365573113806819
-0.7047015250304874 0.5782680671432434 0.4110982889068281
-0.7315717238698313 0.5081993530796253 0.4544625731163934
-0.7561761294930324 0.4281298243453858 0.4948762619998308
-0.7769554600914503 0.3381288685301345 0.5310452723644317
-0.7922463819877142 0.239208455603399 0.561359942456899
-0.8005699115402021 0.133450917232098 0.5841906105257294
-0.8009655763192859 0.02387758092282561 0.5982340734869481
-0.7932454413677292 -0.08596424670703583 0.6028032996238554
-0.7780509697868677 -0.1925869471695804 0.5979523026075034
-0.7566890461209529 -0.2931024130955712 0.58439084773644
-0.7308312097941175 -0.3855503059023297 0.5632376979655088
-0.7022031299787569 -0.4689589124673584 0.5357128920097672
-0.6723510061918112 -0.5432075921348658 0.5028614484327663
-0.6425160918595481 -0.6087818425223441 0.4653576473172349
-0.613591426382696 -0.6665184691789686 0.4233895271649643
-0.586125669135471 -0.7173769515226011 0.3765992689911064
-0.5603268328696033 -0.7622542971512979 0.3240404709919732
-0.5360413877358304 -0.8018062850685257 0.2641331328304998
-0.5126766889391883 -0.8362351718882649 0.1946107651579272
-0.4890570145401205 -0.8649642239667097 0.1125172332879337
-0.4632236824539617 -0.886124899832759 0.01436947842385129
-0.4324501847351001 -0.8957249721486867 -0.1032647664589012
-0.3948617186776835 -0.8862594339398163 -0.2421331015693255
-0.3579790047073581 -0.844380207442323 -0.3985888827706914
0 0 0
0 0 0
0 0 0
-0.2247211936223426 0.7232405409460738 -0.6530111063902201
-0.3098488819968949 0.8059098138059925 -0.5044829455357872
-0.3552809680888467 0.8625210697435159 -0.360323240941175
-0.3895831419258831 0.8919367978787837 -0.2295075687573252
-0.4180868261030164 0.9009410023800181 -0.1162270023255931
-0.4431319812394744 0.8962310841790906 -0.02009703843727425
-0.4664337114080129 0.8824124052296048 0.06154624244460144
-0.4892396093763221 0.8621062865043179 0.1319748286115129
-0.5123966111375808 0.8364850505807435 0.1942742212689398
-0.5364350049564961 0.8057363345470766 0.2510506814329821
-0.5616297784958255 0.7693749994380026 0.3043585092395192
-0.5880181073321297 0.7264420598407283 0.3556917754796967
-0.6153780370023161 0.6756489547152906 0.4059659610944131
-0.6431700902343112 0.6155339538800612 0.4554669984189482
-0.670466108676312 0.5446835962208514 0.5037806835562115
-0.6959004794226662 0.4620598889334385 0.5497482894726652
-0.7177091403593326 0.3674205523709062 0.5915198454321925
-0.7339181325141213 0.2617476038192549 0.6267793604306562
-0.7427073938594603 0.1475006405905876 0.6531686521350011
-0.7428695541245554 0.02849096405897198 0.6688296423767222
-0.7341758435061776 -0.09071306586929023 0.672872179906842
-0.7174522649545875 -0.2056625849017021 0.6655562701102605
-0.6943293407161456 -0.312817259505435 0.6481142868169096
-0.6668167434005389 -0.4099567143292504 0.6223270226312405
-0.6368970327315264 -0.496186911158756 0.5900514544448719
-0.606258398031187 -0.5716707064043259 0.552850213218587
-0.5761781380730542 -0.6372672179464197 0.5117706968335508
-0.5475176204420579 -0.6941905942825612 0.4672514035453401
-0.5207642687887868 -0.7437501295469504 0.4190946446231134
-0.4960802277278858 -0.7871548068478448 0.3664583437633535
-0.4733194002224136 -0.8253552467748966 0.3078270001059743
-0.4520030056563692 -0.8588525590353153 0.2409679744615413
-0.4312365078546273 -0.8874096332914128 0.1629086155945888
-0.4095869311469378 -0.9095762171119217 0.07006890250317444
-0.3849646437521673 -0.922011791438773 -0.04118834190193545
-0.3544831797694403 -0.9188991814718178 -0.1731068154376627
-0.3126646119954956 -0.8928871649630474 -0.3240267752053173
-0.23450662844758 -0.8414536769723189 -0.4867877881828101
0 0 0
0 0 0
-0.2616992881301375 0.7534107921281696 -0.60322936010856
-0.292489398056531 0.8435269349127863 -0.4504578360969732
-0.3217763171576083 0.8956096092469416 -0.307153755537884
-0.3470173848318424 0.9202864511556009 -0.1806980421695207
-0.3692651669880648 0.9264786895907287 -0.0726668712930602
-0.3897540760741258 0.9207300541575015 0.01865281626800557
-0.4095237631839293 0.9071891991299249 0.0964263676059509
-0.4293745674997749 0.8880937272406828 0.1640945228218544
-0.449893197768566 0.8643265302817557 0.2248016006452681
-0.4714923728253607 0.8358392174842024 0.2811898733647898
-0.4944284309666151 0.8019211232621449 0.3353550934723818
-0.5187909590057186 0.7613549091221321 0.3888375537542074
-0.5444522093226597 0.7125253171119572 0.4425827202209534
-0.5709818131829664 0.6535470613173974 0.4968460603221941
-0.5975331427162275 0.5824893987989856 0.5510537574887444
-0.6227454170304496 0.4977587154545105 0.6036757463710517
-0.6447320010404358 0.3986605716063091 0.652219591457452
-0.661258791519494 0.2860404331402468 0.6934822861812101
-0.670172951737893 0.1627450039431538 0.7241424434808816
-0.6700090336317328 0.03353579392970674 0.7415950683340438
-0.6604997157571476 -0.09574135983808814 0.7446970642490005
-0.6426755021663231 -0.2194644837983279 0.7340323829821114
-0.6184984689902513 -0.333357661108172 0.7115703153147998
-0.5902837348608908 -0.4349899198355497 0.6799624121965411
-0.560200867489995 -0.5236558944567149 0.6418407063003985
-0.5299890081222014 -0.5999226810716445 0.5993366566508797
-0.5008765956566066 -0.66510550542963 0.5538567527534931
-0.4736225870157653 -0.7208401093101675 0.506034763507606
-0.4486073137662552 -0.768782122982105 0.4557691580378726
-0.4259142097589986 -0.8104204419009399 0.4022633382182026
-0.4053827237925366 -0.8469372321418417 0.3440380386853459
-0.3866125256112984 -0.8790591537934023 0.2789009845312131
-0.3689242151328206 -0.9068137740740911 0.2039208244347174
-0.3512765986994035 -0.929121631841711 0.115489152953745
-0.3321875203236869 -0.9431637958653052 0.009669824721698585
-0.3097622996952881 -0.9436001828268004 -0.1169017222144942
-0.2822478195276825 -0.9219108335990779 -0.265361231653234
-0.2520277403438629 -0.8659326444226919 -0.432021612214354
0 0 0
0 0 0
-0.2489399387438025 0.7941221962432512 -0.5544356088239881
-0.2627147771100789 0.877340148754439 -0.4015659463544436
-0.2810012081806035 0.9233407991406422 -0.2616870070205257
-0.2990113310727659 0.9438961952138185 -0.1401862923076616
-0.3159737403303232 0.948039770947266 -0.03716433941186532
-0.3322434106697837 0.941873467196968 0.0498867503137944
-0.3483649636123684 0.9290640410835244 0.1244261214251405
-0.3648298319801637 0.9114907104379844 0.1899575702165708
-0.3820419288786319 0.8897927042389551 0.2496255356765835
-0.4003238220894703 0.8637435568585413 0.3060848010813883
-0.419920081103323 0.8324656003936823 0.3614804969114707
-0.4409723409227096 0.7945381132839066 0.4174357208965171
-0.4634629182332694 0.7480572445123976 0.4749868233490483
-0.4871119292004115 0.6907249243094442 0.5344352602218208
-0.5112379507125298 0.6200546160865642 0.5951201818296836
-0.5346074425224266 0.5337996543251428 0.6551738787848518
-0.5553604332645631 0.4306637640405303 0.7114095244700049
-0.571140695934485 0.3112162604856631 0.7595674720897356
-0.579557034140728 0.1786565105385608 0.7951072225933981
-0.5789274353795064 0.03884267796520917 0.8144533571257457
-0.568956867295896 -0.1008428686907263 0.8161610129080317
-0.5508621531209699 -0.2334041134220459 0.8012948321913707
-0.5268671269451033 -0.3537968792643836 0.7728122661859055
-0.4994715850973391 -0.4594724762013924 0.7344475333839112
-0.4708867292788135 -0.5500540251387538 0.6897146204175725
-0.4427713960861577 -0.6266214698937241 0.6413259890852253
-0.4162047420054283 -0.6910105263690725 0.5909975170669767
-0.3917839083989664 -0.7452897157734888 0.5394892109040752
-0.3697494369414354 -0.7914450137478118 0.4867238889711665
-0.3500939185821813 -0.8312028171471478 0.4318982807773347
-0.3326264611134104 -0.8659288210304574 0.3735330163131101
-0.3169957147217591 -0.8965163577975713 0.3094707369839957
-0.3026662145535859 -0.9232011218715539 0.2368392939165845
-0.2888707068871652 -0.9452137722018311 0.1520678780758574
-0.2745862421192211 -0.9602046303285384 0.05108290843793702
-0.258731037500613 -0.9634044636021147 -0.07007203254777986
-0.2411687878121805 -0.9466195555296093 -0.213890235574529
-0.2261720570404629 -0.8973723666622586 -0.3789050490097245
0 0 0
0 0 0
-0.2034823294343215 0.8349568954274217 -0.5113139196092585
-0.2166291403854121 0.9076202879347476 -0.3595792380896351
-0.2315745651706614 0.9466665944575008 -0.224043700434215
-0.245578998380088 0.9634003190112514 -0.1074745592391565
-0.2586004438748799 0.9659430465020675 -0.00893539825744041
-0.2710851662659094 0.9596680209118906 0.0744991427443191
-0.2834747700726842 0.9477378695192793 0.1464069172248885
-0.2961320566651083 0.9317105816186122 0.2102883665712397
-0.3093550731681111 0.912028584376503 0.2692643682059393
-0.3234024188615561 0.8883335775135671 0.3259974394630132
-0.3384990451528976 0.8596314260691338 0.3826907468765389
-0.3548223614389698 0.824350469716488 0.4410752712418576
-0.3724506658847224 0.7803532244708798 0.502323945815772
-0.3912707842122681 0.7249721615677946 0.566853189435885
-0.4108307253025216 0.6551805216171435 0.6340004725872775
-0.4301633926562232 0.5680364514798323 0.7016366904664316
-0.4476474840066182 0.4615327807552633 0.7658976578831257
-0.4610614087537924 0.3358150482198065 0.8213711893821798
-0.4680056108726175 0.1943519041387277 0.8620893721357423
-0.4667215112127959 0.0441748512914842 0.8833004095349546
-0.4569101955758595 -0.1055959210604382 0.8832228340765579
-0.4398795422782256 -0.2464738134056956 0.8635720280268184
-0.4179161456714665 -0.3726892386420838 0.8285220736875322
-0.3934585434739089 -0.4817136798087003 0.7830340383741631
-0.3685363483267706 -0.5736211869043532 0.7315324284653479
-0.344564960257665 -0.6500751819282226 0.6772571490974616
-0.3223824830078659 -0.7134385763647833 0.6221534637083311
-0.3023845685206461 -0.7661887123992606 0.5670259515335649
-0.2846693122562785 -0.8105944282406569 0.5117617175646684
-0.2691450679697603 -0.8485740370691093 0.4555030581673259
-0.2555954736534898 -0.8816260582221656 0.3967448138432237
-0.2436954933588143 -0.9107653916700199 0.333345028240648
-0.2329889495294277 -0.9363824155236542 0.2624959452929889
-0.2228283075867118 -0.9579631802665809 0.1807044288100854
-0.2123147189496983 -0.9735912538276768 0.08391978662724313
-0.2003482428678573 -0.9792017820382318 -0.03200705598633045
-0.1862129564572693 -0.967637399586174 -0.1703014908024868
-0.172267034230504 -0.9274549798452274 -0.3318905380960935
0 0 0
-0.03049059584138659 0.7756610891320164 -0.6304127206614497
-0.123615784791327 0.8705970531420349 -0.4762141417585458
-0.1580408668700326 0.9315263547698516 -0.327538905732068
-0.1759257441709093 0.964778306994455 -0.1955836161104096
-0.1881568289330152 0.9786446276884442 -0.08277499877630846
-0.1980990152191348 0.9801040814846134 0.01236000106837347
-0.2070328265386697 0.9738998414687658 0.09304035426910959
-0.2155562595915042 0.9628006537799506 0.1629429348938426
-0.2240066153786278 0.9481229819071814 0.2255744831448037
-0.2326180400723835 0.9301651636020956 0.2840450947542818