# OOMMF: rectangular mesh v1.0
# Segment count: 1
# Begin: Segment
# Begin: Header
# Title: 
# Desc: time = 6.4e-10
# Desc: stepsize = 2.2196489354846337e-14
# Desc: step = 4094
# meshunit: m
# valueunit: (none)
# valuemultiplier: 384000.0000000001
# xmin: 0
# ymin: 0
# zmin: 0
# xmax: 9.357999999999999e-08
# ymax: 9.357999999999999e-08
# zmax: 2.3395e-08
# ValueRangeMaxMag: 1
# ValueRangeMinMag: 0
# meshtype: rectangular
# xbase: 1.16975e-09
# ybase: 1.16975e-09
# zbase: 1.16975e-09
# xstepsize: 2.3395e-09
# ystepsize: 2.3395e-09
# zstepsize: 2.3395e-09
# xnodes: 40
# ynodes: 40
# znodes: 10
# End: Header
# Begin: Data Text
0 0 0
0 0 0
0 0 0
0 0 0
0 0 0
0 0 0
0 0 0
0 0 0
0 0 0
0 0 0
0 0 0
0 0 0
0 0 0
0 0 0
0 0 0
0 0 0
-0.8374763239681353 0.02147296571156352 -0.5460515713157212
-0.8470330353558631 0.03988876241103284 -0.5300414357851173
-0.8571742497364462 0.0206042587972524 -0.5146141954009584
-0.8622856609472468 -0.01433075659925812 -0.5062193875584596
-0.8606157281103713 -0.05373786728572984 -0.5064117002485587
-0.8522676791483912 -0.08898141166447734 -0.5154824065447927
-0.8392675395770079 -0.1087762940832337 -0.532726679318647
-0.8277991557212087 -0.09042391567314098 -0.5536895097991201
0 0 0
0 0 0
0 0 0
0 0 0
0 0 0
0 0 0
0 0 0
0 0 0
0 0 0
0 0 0
0 0 0
0 0 0
0 0 0
0 0 0
0 0 0
0 0 0
0 0 0
0 0 0
0 0 0
0 0 0
0 0 0
0 0 0
0 0 0
0 0 0
0 0 0
0 0 0
0 0 0
0 0 0
-0.7835818418291316 0.2328660714570377 -0.575997300271304
-0.8113195738332926 0.262264248519343 -0.5224729783094509
-0.8480297422205894 0.2447763598963645 -0.4700320094899555
-0.8843115331208954 0.1964070584041731 -0.4235768877056329
-0.91595196859185 0.1144584153757359 -0.3846183333934944
-0.9288399115337438 0.07360557641525857 -0.3630959072511885
-0.9367565083666934 0.03449271108450107 -0.3482779018466165
-0.9401902940823877 -0.008492163185734451 -0.3405438210828374
-0.9386372788823943 -0.05325716344180594 -0.3407693255479231
-0.932136724240065 -0.09641942342361687 -0.3490335544179921
-0.9212215782361943 -0.1358439929406158 -0.3645507006905409
-0.9051383695781481 -0.1769468196593525 -0.386541530666307
-0.8686271889949647 -0.2583947960087346 -0.4227516244017396
-0.827918487950917 -0.3076866406730041 -0.4689135404959299
-0.7874581514573677 -0.3265342453267707 -0.5227667226710409
-0.757233193572141 -0.2983532891124368 -0.5810191093486742
0 0 0
0 0 0
0 0 0
0 0 0
0 0 0
0 0 0
0 0 0
0 0 0
0 0 0
0 0 0
0 0 0
0 0 0
0 0 0
0 0 0
0 0 0
0 0 0
0 0 0
0 0 0
0 0 0
0 0 0
0 0 0
0 0 0
-0.7571089278382488 0.3273459842736805 -0.5653588930648494
-0.7947185410784526 0.3554622207659832 -0.4920051321625117
-0.8497128823735443 0.3179444292943401 -0.420594052988317
-0.8835247326226416 0.2964159932832147 -0.3626590765030073
-0.9133689512603482 0.2628890337496682 -0.3108802258229632
-0.9398017999036695 0.2138166305597101 -0.2665614852035358
-0.9606051281711508 0.152507217373721 -0.2323345354875394
-0.9725668127454197 0.09886291532239697 -0.2105704602269075
-0.9792543289939338 0.04808190743149687 -0.196847883718339
-0.9817686518202913 -0.002852214982447273 -0.1900583572818119
-0.9802458745097431 -0.05414837391596913 -0.1902261262521126
-0.9746837697501035 -0.1050981327263129 -0.197347235813347
-0.9648966051689893 -0.1559093679146994 -0.2113452396667546
-0.9495931739570806 -0.2095753079583621 -0.2331329969529721
-0.9248960443595654 -0.2708898569032422 -0.2668070324316231
-0.8946770126500652 -0.3204156974065648 -0.3112664837257924
-0.8613257111972601 -0.3546932047284381 -0.3637454463632551
-0.8241842418757633 -0.3771212010383692 -0.4224925267635518
-0.7651602007058985 -0.414970482789529 -0.4922696066883815
-0.7246315028128788 -0.3884126408757738 -0.5692493351239468
0 0 0
0 0 0
0 0 0
0 0 0
0 0 0
0 0 0
0 0 0
0 0 0
0 0 0
0 0 0
0 0 0
0 0 0
0 0 0
0 0 0
0 0 0
0 0 0
0 0 0
0 0 0
0 0 0
-0.7611122777166878 0.4082173385958203 -0.5040503002465726
-0.8121723203661353 0.407582418774494 -0.4174358560749426
-0.8518549583359933 0.3972905987895283 -0.3413258121968517
-0.8897373178385914 0.3655502455188817 -0.2733871307257782
-0.9190945142987024 0.3288929473778022 -0.2170131400426568
-0.9434866343162642 0.284966190466644 -0.1691958662541603
-0.9638848275355248 0.2326045398180241 -0.1296964429074904
-0.9796895877953904 0.1740273596253155 -0.09961320026552026
-0.9901163444765004 0.1156554185385884 -0.07933125842412291
-0.9960678083691968 0.05821669996987471 -0.06678126215639953
-0.9981520981530256 0.001087854670706796 -0.06075529215572315
-0.996574472676821 -0.0559819188239301 -0.06087154650332331
-0.9913286347148873 -0.1129733757662929 -0.0671159769524716
-0.982179616563627 -0.1701464455371754 -0.07983350097541086
-0.9684587885899614 -0.2281456298621045 -0.100185559726377
-0.9492406427800595 -0.2863128547989444 -0.130258018069435
-0.9255252661129256 -0.3384013221866337 -0.1699633105377028
-0.8979438608531428 -0.3822526358244179 -0.2181278184034215
-0.8653684585450238 -0.4191139114513164 -0.2747379846023973
-0.8239506561428345 -0.4514172050317146 -0.3425314923377801
-0.7808370227958454 -0.4628813082218844 -0.4195645818346877
-0.7264280818832739 -0.4638967049123726 -0.5070523533352644
0 0 0
0 0 0
0 0 0
0 0 0
0 0 0
0 0 0
0 0 0
0 0 0
0 0 0
0 0 0
0 0 0
0 0 0
0 0 0
0 0 0
0 0 0
0 0 0
-0.6566145080949326 0.4983577862151786 -0.5661244604130397
-0.7079911566876858 0.5336278474735575 -0.4625903613919877
-0.7879196630379526 0.498409523789772 -0.3616221110410857
-0.8373828448421655 0.4712935718019063 -0.2768977073618391
-0.8739545063621755 0.440839251365617 -0.2046076129195778
-0.9046206638691567 0.401636134289034 -0.1426529709970543
-0.9298339317634267 0.3565186928363254 -0.0911223408371659
-0.9508471784833068 0.3058483595372556 -0.04843990233994371
-0.96821768174893 0.2497215476708751 -0.01391651456327031
-0.9818091098884537 0.1894673001140508 0.01236987985123081
-0.991340793064079 0.1276885375939492 0.03064423884192377
-0.9969594109435748 0.06561335821920342 0.04203355985683797
-0.9988664047167074 0.003544302575188745 0.04746939485156163
-0.9971659758017914 -0.05843406024763158 0.04738646754334528
-0.9918649456949861 -0.1202388706530551 0.04179166765707881
-0.982870831335483 -0.181793981105024 0.03026346549689728
-0.9699979192829759 -0.2428229966566069 0.01187555815118728
-0.9531451068623764 -0.3021646447308295 -0.01452352364269424
-0.9326796116265396 -0.3573318284440679 -0.04922099589591903
-0.9087248912398261 -0.4071100690841466 -0.09208943311513376
-0.8805975220230574 -0.451547618641489 -0.143710654810458
-0.8468582485699673 -0.4904615252841547 -0.2056176039276487
-0.8069515493478646 -0.5211538994422531 -0.2778989206549995
-0.7535151871023824 -0.5487778261214027 -0.362019005528064
-0.6684894456449373 -0.584327680587572 -0.4600902332808992
-0.6131186914241542 -0.551093388925874 -0.5660225674904913
0 0 0
0 0 0
0 0 0
0 0 0
0 0 0
0 0 0
0 0 0
0 0 0
0 0 0
0 0 0
0 0 0
0 0 0
0 0 0
-0.6353681393347819 0.5447114324553546 -0.5473543485446081
-0.6984917188503554 0.5681093313642902 -0.4351564159176498
-0.7498273015920996 0.5731184782750438 -0.3305967750096901
-0.8015531531518192 0.5498905952047011 -0.2348039096305576
-0.8421290634728397 0.5167134527073171 -0.1543562381170279
-0.8744499722976787 0.4771872401206619 -0.08734748888556361
-0.9015438674463254 0.431544688744833 -0.03142986932914294
-0.9245507814634758 0.380773288645002 0.01474975083673074
-0.9441213656564067 0.325378863416386 0.05256845206910583
-0.9604757698869156 0.2657397531921425 0.08287749413148937
-0.9734791048727556 0.2027119565867783 0.1060485503573607
-0.9828795771268903 0.1376456355481724 0.1224802673143882
-0.9885446905261431 0.07158603080957503 0.1328714981683493
-0.990437934365932 0.005149149001298121 0.1378629189938604
-0.9885626940128043 -0.06127389856631415 0.1378017030396608
-0.9829424591974991 -0.1273494817544869 0.1326884750218925
-0.9736231919899958 -0.1926929802905887 0.1221773111749559
-0.9606986971920466 -0.2567117296081851 0.1056271797175232
-0.9443683792788633 -0.3184171017101167 0.0823341578978088
-0.9249400891369085 -0.376553502985171 0.05189692569896463
-0.9025381458177211 -0.4303830305425966 0.0139764932969537
-0.8768537599890306 -0.4796756678652445 -0.03222944695663603
-0.8470859322774944 -0.5241069616193673 -0.0880756272738512
-0.8118978060340342 -0.5628694508819935 -0.1549191202561024
-0.7679515852816899 -0.5958544938261651 -0.2349633691674154
-0.7121258278688533 -0.6196243733244126 -0.3300642986819823
-0.656561420765122 -0.6161706205334434 -0.4350412246607382
-0.5894467374004394 -0.5940097405248793 -0.5474531687090158
0 0 0
0 0 0
0 0 0
0 0 0
0 0 0
0 0 0
0 0 0
0 0 0
0 0 0
0 0 0
0 0 0
-0.5928517153084406 0.5902046891641414 -0.5478916576701073
-0.6614146739763426 0.6176480383370841 -0.4254897528579503
-0.7147210004827633 0.6255020114867951 -0.3129235131703758
-0.7587067262242989 0.6158541397453061 -0.2123388380409362
-0.7982678935995838 0.5893594689215416 -0.1241925377814674
-0.8322020092198336 0.5521943344852615 -0.05021187920054684
-0.8613192865240574 0.5079451693788879 0.01099052165917663
-0.8867672030849209 0.4581027836887673 0.06152858774219137
-0.9091534310999891 0.4034979184980926 0.1030993137068483
-0.9286950815860251 0.3445949922402694 0.1370391796562361
-0.9453189888533298 0.2817838562740228 0.1642250518546379
-0.958746828726996 0.21568489874501 0.185160856714593
-0.9686259461772985 0.1471920147628089 0.2002455671973733
-0.9746623618965659 0.07720469582823683 0.2099350262444943
-0.9766717169726918 0.006484455289147165 0.2146399522577665
-0.9745828050305489 -0.06432274332268025 0.2145948294582861
-0.9684342699271264 -0.134611097544843 0.2097973242166961
-0.9583766572597485 -0.203740483176288 0.2000099955870273
-0.9446774193913315 -0.2709704077428127 0.1848231896159876
-0.9277107659363367 -0.3354500192046954 0.1637865054923151
-0.9078867423812206 -0.3963659882488116 0.1365125135947526
-0.8854912721255453 -0.4532051617630152 0.1025196973310106
-0.8605457217952253 -0.5057127413520899 0.06095641011483925
-0.8327222164848257 -0.5535914204740588 0.01049996905293557
-0.8012391446238709 -0.5962056935562937 -0.05054309145140978
-0.7647018523431738 -0.6322869727188554 -0.1242749417740505
-0.7220542225608727 -0.6585074786339619 -0.2121452338968639
-0.6744149613519458 -0.6688789635140101 -0.3126745785526484
-0.6167703590846079 -0.6624921140198893 -0.4250864888656204
-0.5438012882721055 -0.6364263778302622 -0.5470298204626965
0 0 0
0 0 0
0 0 0
0 0 0
0 0 0
0 0 0
0 0 0
0 0 0
0 0 0
-0.5498630643237519 0.6137145769232758 -0.5665730566876414
-0.6150153297969009 0.6572915136829605 -0.4355731972414867
-0.6677844982515284 0.6752754202673659 -0.313156463573221
-0.7111948039689665 0.672612364530849 -0.2044371734488697
-0.7482903759770111 0.6541419647647344 -0.1102714974683664
-0.7815767406306234 0.6230927865719039 -0.02988608082820978
-0.8117044728538725 0.5828699354386078 0.03739635157083742
-0.8391339225657253 0.5358856866680179 0.09317076163585815
-0.864219160281739 0.4834429270755173 0.1393132415191797
-0.8870555500855838 0.4262099394977048 0.1774191042016742
-0.9074946660333533 0.364558766677181 0.2086871744018413
-0.9251979480986201 0.2988259347500738 0.2339055740140595
-0.93970190489995 0.2295149586540663 0.2535413451124428
-0.95050783548621 0.1573561568446599 0.2679065034343101
-0.9571802649962056 0.08321321295941912 0.2772751368059593
-0.9594171581247481 0.00798242211907982 0.2818776288266669
-0.9570860351629602 -0.06744799082980751 0.28184586182711
-0.9502384156470984 -0.14219740305079 0.2771765718708971
-0.9391103683553266 -0.2153839433206894 0.2677339593834746
-0.9241065340804763 -0.2861316213717179 0.2532899700362424
-0.9057556370501062 -0.3536203738169053 0.2335794451006926
-0.8846250883561885 -0.4171904216114759 0.2083041170175093
-0.8612069373088407 -0.4764334152114347 0.1770135927015054
-0.8358199672686527 -0.5311327974944723 0.1389349982571838
-0.8085393152823498 -0.5810661384281723 0.09287797594112747
-0.779133687966963 -0.625750229570452 0.03724710012235883
-0.7470397904479141 -0.6641091063018776 -0.02984369974478901
-0.7115246128389335 -0.6939935263774382 -0.1100259545317069
-0.6716295743504722 -0.7122396300443909 -0.2040304493256625
-0.6245111698037347 -0.7157333956350084 -0.3125883957589451
-0.5670993819602709 -0.699472564387375 -0.4348981750359823
-0.4973108461301341 -0.6575631640374308 -0.565943996895817
0 0 0
0 0 0
0 0 0
0 0 0
0 0 0
0 0 0
0 0 0
0 0 0
-0.5831381715000841 0.6690656439255214 -0.4607613667160746
-0.6184730314545577 0.7128407413771681 -0.3306798856844165
-0.6573948090520162 0.7229050739365441 -0.2126977176846578
-0.6929126435725439 0.712504324088241 -0.1104973145957267
-0.7250774339737939 0.6882622507711704 -0.02361755502546
-0.7550091077707163 0.6538315205733697 0.04965470660452279
-0.7833380467270721 0.6115954309285292 0.1110519401773846
-0.8103052050760211 0.5630655167081839 0.1623659401501819
-0.8358905419466338 0.5090665171971993 0.2052761139365117
-0.8598537153098965 0.4499998939808361 0.2411466020598318
-0.8817684136334017 0.3860894362440878 0.2709601667019635
-0.9010640705171657 0.3175869699080546 0.2953338066792484
-0.9170810534643583 0.244927866029292 0.3145992400166271
-0.9291482348373317 0.1687997000806215 0.3289228161003158
-0.9366757805435197 0.09011576229690657 0.3384045382804944
-0.9392404919204256 0.009944791464933609 0.3431157231311255
-0.9366467268902803 -0.0705588781839764 0.3430952545797488
-0.928957234838145 -0.1502153973977138 0.3383397556104126
-0.9164922734543567 -0.2278777803375694 0.3288063714815855
-0.899794971494169 -0.302497935341415 0.3144264753292697
-0.879562112547873 -0.3732035728464732 0.2951094430629919
-0.8565472235910844 -0.4393713573987416 0.2707021685468948
-0.8314571807466707 -0.5006521329461444 0.2408866919555198
-0.8048674707406154 -0.5569020280793766 0.2050572741081895
-0.7771601484308827 -0.6080305974720955 0.1622371604430201
-0.7484711932693633 -0.6538014452911644 0.1110609876649738
-0.7186412146079161 -0.6935927520588678 0.04983872950090373
-0.6871622002797745 -0.7261320671656561 -0.02324503259600709
-0.6530463623196106 -0.7492925376405839 -0.1099597276154203
-0.6147601776297311 -0.7596618277626027 -0.2120939212731998
-0.572019291386353 -0.7507405332713771 -0.3304278771309435
-0.5325157291071068 -0.7088735470558049 -0.4625205860694716
0 0 0
0 0 0
0 0 0
0 0 0
0 0 0
0 0 0
0 0 0
-0.4625860476397219 0.7268104247702908 -0.5077014427537998
-0.547564890073255 0.7540602963473411 -0.3627199479372811
-0.5946878935881068 0.7686494180286466 -0.2356361207114958
-0.6311473329130364 0.7655431502406163 -0.1248868659084417
-0.6629854066740942 0.748015921125039 -0.03037321650146196
-0.6924789255418126 0.7197441356186657 0.04940968450613524
-0.7208314311779018 0.6832275561321631 0.1166282743063999
-0.7485961700035442 0.6399592216811882 0.1733665735983502
-0.7758790322176019 0.5907404630880181 0.2214439717753243
-0.8024755011248739 0.535915311641631 0.2623506219593076
-0.8279481921204712 0.4755764119583286 0.2972017287185331
-0.8516733235404143 0.4097525991363692 0.3267343836675502
-0.8728818640036285 0.338576486314518 0.3513448653509329
-0.8907145318777335 0.2624206815266411 0.3711643956644046
-0.9043029487830607 0.1819777389787122 0.3861609500434454
-0.912874356452854 0.09826791017389591 0.3962370845350571
-0.9158612145938416 0.01258523846500602 0.4012977041741847
-0.9129912493459472 -0.07359719134068263 0.4012859728977437
-0.9043375465380051 -0.1587459641407426 0.3961985875677083
-0.8903165387761267 -0.2413961787934627 0.3860885204789329
-0.8716325203121577 -0.3202749914186018 0.371053472435025
-0.8491793771934597 -0.3944020394738539 0.35119996669731
-0.8239213434062077 -0.4631457223765406 0.3265725948759656
-0.7967798631281917 -0.5262143777425012 0.2970526525222282
-0.7685461242576712 -0.5835751251969877 0.262253556963164
-0.7398194079702365 -0.6353189685440992 0.221443111878943
-0.7109557169057248 -0.6814969446222386 0.1735047061886784
-0.6820060338418266 -0.7219369338112447 0.1169394433138759
-0.6526202274563425 -0.7560394613966245 0.04991163717945286
-0.6218938720820868 -0.7825386665859951 -0.02968580746014608
-0.5881706262859134 -0.7991659947246836 -0.1240525181128655
-0.5487044263234734 -0.8023881387372817 -0.234726920796802
-0.4972116036842663 -0.7886848622123098 -0.3616031101620522
-0.4069762189991811 -0.7617826286736359 -0.5040412521016659
0 0 0
0 0 0
0 0 0
0 0 0
0 0 0
-0.3870477976127687 0.7248181673375614 -0.5699408975152803
-0.4615980737295918 0.7811919736522641 -0.4203169264143549
-0.5199343106516986 0.8074748422927212 -0.27866232553305
-0.5616835085034581 0.8125793086851193 -0.1556486536146664
-0.5950326544665171 0.802068359379482 -0.05121022359681485
-0.6245772199123603 0.7801020018188368 0.03666283028886314
-0.6526217356780949 0.7495715533235563 0.110577378195638
-0.6803090735251786 0.7121812722232815 0.1731398278090301
-0.7081116825867125 0.6687547061200936 0.2265943247886888
-0.7360601173908792 0.6195466586003975 0.2727222788911952
-0.7638649760056107 0.5644797420328065 0.3128464787503983
-0.7909831032590606 0.5033302052552199 0.3478569171892429
-0.8166560827518308 0.4358925494753548 0.3782466494449221
-0.8399461515553314 0.362135689811644 0.4041635864993681
-0.8597921783723923 0.282344539517602 0.4254867459912808
-0.8751017089402846 0.1972238680899895 0.4419273072185234
-0.8848802309399189 0.1079371551406214 0.453140758961125
-0.8883788632684414 0.01606368936303928 0.4588299828715634
-0.8852259371275686 -0.07652620423244072 0.4588232560609716
-0.8755043455892264 -0.1678593058225435 0.4531174177883185
-0.8597487598159593 -0.2560735677071975 0.4418805244821575
-0.8388616504683438 -0.339610753119812 0.4254123502425847
-0.8139731500991509 -0.4173464998555926 0.4040663435327793
-0.7862841608977539 -0.4886354815309317 0.3781436030271421
-0.7569294429695894 -0.5532711302427212 0.347777047554447
-0.7268800031068703 -0.6113790774309473 0.312827563943843
-0.6968818872366568 -0.6632740782116949 0.2728060344162153
-0.6674124226918752 -0.709304592764757 0.2268207501957947
-0.6386289146420352 -0.7496908541497204 0.1735417315443124
-0.6102836215641101 -0.7843428403589072 0.1111764814532069
-0.5815789068009611 -0.8126266326250592 0.03746906874550474
-0.550921753890491 -0.8330461386395397 -0.05019314682282049
-0.5154516639972548 -0.8428953475704557 -0.1543924063111304
-0.4700283394890235 -0.8380653107742769 -0.2769835644113299
-0.4062920889496852 -0.8127591842768964 -0.4175514900350068
-0.3260108323384146 -0.7575960217177458 -0.5654778555128912
0 0 0
0 0 0
0 0 0
0 0 0
-0.4136765609489388 0.7653237639499937 -0.4931036800256844
-0.4501643153523846 0.8242853566290419 -0.3433740526455829
-0.4892424689258497 0.8473618345444226 -0.2064454600054192
-0.522901747724582 0.847748522785539 -0.08886058936060255
-0.5523818584341886 0.8335338252383212 0.00977980860564461
-0.5798394857772418 0.8094923620770469 0.09224037333243093
-0.6067798571322397 0.7782490600660723 0.1616991202352474
-0.6340424741148281 0.7410390524227374 0.2210232200533659
-0.6619749868479379 0.6982255343596893 0.27252563174094
-0.6905575605314485 0.6496517983111826 0.3179352080910522
-0.7194706943215265 0.5948799184782446 0.3584407937216646
-0.7481261740771622 0.5333701479075141 0.3947448707479089
-0.7756812061719928 0.4646431300903106 0.4271128984840427
-0.8010582904363173 0.3884470438752715 0.4554278311959061
-0.8229958035350733 0.3049283562129183 0.4792667367353443
-0.8401509900678841 0.2147808260505088 0.4980115567424261
-0.8512623591380164 0.1193295705701324 0.5109920248911191
-0.8553517966325458 0.02050471834152133 0.5176416332977961
-0.8519170211374563 -0.07932102808084897 0.5176345850119362
-0.8410500544038114 -0.1776132057675135 0.5109680568531971
-0.8234340604240665 -0.272006153909912 0.4979648585680234
-0.8002175021972715 -0.3605889254087682 0.4791947162163923
-0.7728122785320459 -0.4420738001971885 0.4553371688423021
-0.7426817197784219 -0.5158252373257579 0.4270224673770576
-0.711170252743938 -0.5817737877433623 0.3946848508707471
-0.6793955346867021 -0.6402624859394024 0.3584489594718696
-0.6481946394799816 -0.6918718865676139 0.3180518855891075
-0.6180996798829286 -0.7372510768619098 0.2727886276855675
-0.5893144659388482 -0.776957003910145 0.2214639345586103
-0.5616669379569762 -0.8112802638303687 0.1623409508576355
-0.5345166167207335 -0.8400144940664054 0.09310014075059593
-0.5066031612004063 -0.8621107982389196 0.01087237883848697
-0.4758648788840679 -0.8751535998275775 -0.08751453452703106
-0.4395239145072317 -0.8745666346116164 -0.204821703440701
-0.3959659472205905 -0.8523697275442496 -0.3415798826158262
-0.3541155082549972 -0.7951390417001477 -0.4922967714473407
0 0 0
0 0 0
0 0 0
-0.2969977404135322 0.7571674595943899 -0.5817987455474903
-0.3758483045662407 0.8243103842820523 -0.4233797849678903
-0.4178798095452776 0.8656773447922539 -0.2756432467662412
-0.450328771449808 0.8810769485711639 -0.1445939428227622
-0.4784514475286379 0.8774912430861574 -0.03306555102914057
-0.5044658811367484 0.8613314561049371 0.06018552561099894
-0.5298508097692591 0.8367475718026761 0.1382447846003058
-0.5555775773539199 0.8059330449427868 0.2044638907259581
-0.5822059164980357 0.7697464592510924 0.2617759715197098
-0.6099675776305576 0.7282104280105902 0.3124886026339871
-0.6388155709520337 0.6808475452339992 0.3582754337909096
-0.6684386083711764 0.6269040659595039 0.4002263346186088
-0.6982511408280483 0.5655210724168893 0.4388977796535085
-0.7273737399426519 0.4959013288871104 0.4743514672158577
-0.754625327516968 0.4175013263451782 0.5061948810190845
-0.7785567241891352 0.3302528524862672 0.5336501481725325
-0.7975574456977819 0.2347852046700057 0.5556779899187052
-0.8100544990519184 0.1325836433820994 0.571168351778417
-0.814785932498568 0.02599850471485398 0.5791786960472824
-0.8110803588298371 -0.08196093793588355 0.5791641012469022
-0.7990374553335514 -0.1880374191011042 0.5711226435643028
-0.7795251487502635 -0.2892255322843389 0.5555979967032997
-0.7539918126679519 -0.3831895268635144 0.5335373772584365
-0.7241761807948741 -0.4684776228408993 0.5060608422578152
-0.6918219344741178 -0.5445164836978303 0.4742195799013781
-0.6584696192348186 -0.6114499694662289 0.4388014304722581
-0.6253452181604369 -0.6699102535637929 0.4002044606122849
-0.5933256106939334 -0.7207895130040102 0.3583674059371367
-0.562945420129118 -0.7650440904927399 0.3127299051222741
-0.5344114401251179 -0.8035283652416387 0.2621956882092009
-0.5075990123909446 -0.8368294807678122 0.2050845258365703
-0.4820134166802634 -0.8650541360441388 0.1390841754231814
-0.4567085646162738 -0.8875046744961216 0.061259609480273
-0.4301784963903654 -0.9021856518934342 -0.03174131000672182
-0.4002859588841511 -0.9051630294293653 -0.1430071371451407
-0.3641997047009164 -0.8901707715907972 -0.2737783273036954
-0.3165728947717719 -0.8500221211500272 -0.4210035580032889
-0.2314408624148996 -0.7837374460302243 -0.5763599074316916
0 0 0
0 0 0
-0.3252716185555473 0.7873694248257278 -0.5236867031077425
-0.3534640065878857 0.8614256694911547 -0.3647040059946617
-0.3810396329089898 0.8982257443947222 -0.219087448885437
-0.4058924642284792 0.9091746303911226 -0.09302042214319202
-0.4291411269724558 0.9031425332696436 0.01309418726384096
-0.4519223349586987 0.8862410288235195 0.1017007472701498
-0.4750971368139982 0.8620969104435603 0.1762714599554004
-0.4992543362423463 0.8324851011277725 0.2402366835924432
-0.5247514954512151 0.7979444762754495 0.2965138796130987
-0.5517440762144216 0.7582282856467429 0.3473734895001269
-0.5801878662466037 0.7125971798210393 0.3944455591983685
-0.6098146303727739 0.6600120898388004 0.4387597951612428
-0.6400866713736444 0.5992883465244949 0.4807728474547459
-0.6701412429563023 0.5292639804033896 0.5203752045750665
-0.6987458700847732 0.4490213192182578 0.5568968162298721
-0.724300295258357 0.3581763225413377 0.5891509180671961
-0.7449324241214564 0.2572068818335216 0.6155650277834235
-0.7587283079813762 0.1477300360136245 0.6344345443992866
-0.7640909039369213 0.03258391290498271 0.6442851691143126
-0.7601380925564907 -0.08442196198735365 0.6442538417260583
-0.7469742700288936 -0.1991015284138136 0.6343406193032921
-0.7256891208236095 -0.3076436083095701 0.6154110091512209
-0.698080556875058 -0.4072166800543667 0.5889466118405874
-0.6662446344223526 -0.496230334776278 0.5566628620190573
-0.6322012916151222 -0.574258488277033 0.5201429760382695
-0.5976519934801565 -0.6417585132153426 0.4805810081607753
-0.5638786439523117 -0.6997340281048913 0.4386492503203498
-0.531742685879157 -0.7494366057002533 0.3944546742662621
-0.5017325684746753 -0.7921388684200882 0.3475348081414966
-0.4740181647757363 -0.8289663155138465 0.2968528713117664
-0.4484860695679589 -0.8607490471336228 0.2407723473782724
-0.42474147653084 -0.8878397198532161 0.1770178238634852
-0.4020718031946907 -0.9098338693202833 0.102667401415691
-0.3793824395805859 -0.9251296985525329 0.0142830456829761
-0.3551518845221012 -0.9303073473117571 -0.09162629785253175
-0.3275351119918826 -0.9194520394381073 -0.2175515975247464
-0.2950493391717942 -0.8837519376561561 -0.3632194930662126
-0.2608716290159236 -0.811408055015383 -0.5230324668992649
0 0 0
0 0 0
-0.3064870311236805 0.8278019406460626 -0.4699038697601927
-0.3192268293885057 0.894749910206867 -0.3122768476582354
-0.3372084754426409 0.9257760539475859 -0.1709653240481398
-0.3561160877954088 0.9330927800478249 -0.05019159128691968
-0.3752960752975463 0.9255023203009252 0.05097363027940813
-0.3950504545574662 0.9085893627303254 0.1356484732211899
-0.4158037044809524 0.8854639710354179 0.2075110487133271
-0.4379040500362811 0.8575214735426027 0.2699943802658588
-0.4615922394725034 0.8250314357004874 0.3259689165622254
-0.4869941910643628 0.7875297709372183 0.3776685289471954
-0.5140986490823556 0.7440591974722679 0.4267065615485902
-0.5427113327349355 0.6933214254883867 0.4740989456641103
-0.5723855276847494 0.6338035674434138 0.5202574800933214
-0.6023352631965796 0.5639378387558868 0.5649480902961315
-0.6313498884515233 0.4823476731674854 0.607238042732964
-0.6577506076169524 0.3882137327423085 0.645487595457738
-0.6794544084503176 0.281741219043985 0.6774685175925429
-0.6942173976545047 0.1646145261896682 0.7006884204560239
-0.700081143560604 0.04021345285006563 0.7129300601326553
-0.6959193170093532 -0.08666551648346575 0.7128712313355678
-0.6818359424990345 -0.2106594076369909 0.7005157824706626
-0.6591679421891938 -0.3269625398140708 0.6771950395184499
-0.6300862490756526 -0.4321908630522217 0.6451374866026233
-0.5970352384315394 -0.5246772039401514 0.606846566882057
-0.5622643784350153 -0.6042621318830712 0.5645582739763992
-0.5275668662132291 -0.6718345485483022 0.5199149363606042
-0.4942087302735069 -0.7288532315167791 0.47384670287868
-0.4629752451404345 -0.7769699661357485 0.4265812866385111
-0.4342629364473827 -0.8177770956502687 0.3776987210170388
-0.4081694983573633 -0.8526473970908781 0.326174917559349
-0.3845567509559289 -0.8826129678771597 0.2703894491826385
-0.3630766789118967 -0.908222896470684 0.2081021277082675
-0.3431601794841732 -0.9293151882286188 0.1364344976316339
-0.3239844929745466 -0.9446356371324929 0.05193805321066877
-0.3044840384399956 -0.9512510677620019 -0.04910067633873979
-0.2836183047346805 -0.9437685593585616 -0.1698869141096226
-0.2615419900614314 -0.9135128494573546 -0.3115927812241647
-0.2434154247805451 -0.8480241409745589 -0.470748326925617
0 0 0
0 0 0
-0.2572286888695333 0.8684768487021642 -0.4237704153085942
-0.2697278036701823 0.9249347930103625 -0.2678479804033189
-0.2851352676830629 0.9494527969976825 -0.131290766608261
-0.3009507140177299 0.953513291039585 -0.01552647877265549
-0.3171472535378726 0.9448787116839389 0.08137468758700971
-0.3341070981176814 0.9283546746721464 0.1628804623082665
-0.3521900584308973 0.9065294911031536 0.2327368567775592
-0.3716745010578262 0.8804658448832766 0.2943432711264058
-0.3927658828536851 0.8502147013561827 0.3505280628765429
-0.4155981735148783 0.8151414742446301 0.4035127447025527
-0.4402117875951935 0.7741122661983901 0.4549327218209699
-0.4665043835228035 0.7256008035681598 0.5058429934428754
-0.4941525494946893 0.6677777646773464 0.5566741549869407
-0.5225055920787206 0.5986480652404049 0.6071312874744511
-0.5504647579688372 0.5163075691720977 0.656060244375399
-0.5763878848339709 0.4193823696303755 0.701352574857918
-0.5980990582991255 0.3076597761343396 0.7400155259254138
-0.6131128832418798 0.1827857402009561 0.7685583683637937
-0.6191469055703186 0.04870302415266105 0.7837634367339955
-0.6148290513862661 -0.08861683494647571 0.7836659327389016
-0.6002554563740307 -0.2223628779492887 0.7682760816290671
-0.5769999648157568 -0.3465468453676935 0.7395784776264887
-0.5475653875359833 -0.4572108308280798 0.7008069652522473
-0.5146593586495793 -0.5527164862654627 0.6554618450869306
-0.4806489909482101 -0.6333154162551072 0.606537823251021
-0.4473091392352577 -0.7004457199186956 0.5561387663202346
-0.4158025682000663 -0.7560879684384689 0.5054099408013434
-0.3867801255684488 -0.8023139412659339 0.4546355398729603
-0.3605123964746414 -0.8410231249441485 0.4033744108112081
-0.3370035450487688 -0.8738046783667278 0.350562397711137
-0.316067196560057 -0.9018525129878985 0.2945565685502158
-0.2973588738348409 -0.925866526558475 0.2331284520392548
-0.2803660457361354 -0.9458763394668024 0.1634406033859541
-0.2643646744628641 -0.9609238294308806 0.0820774812481166
-0.2483795008242293 -0.9685506650483217 -0.01473881965286376
-0.2312826721077537 -0.9640886632806752 -0.1305426172419462
-0.2124995862217951 -0.9398557916759819 -0.2674229173213818
-0.1950788127253487 -0.8841961092438767 -0.4244307920305238
0 0 0
-0.08916771432285836 0.8273797306136632 -0.5545195218313768
-0.1757799151796231 0.9049346767353853 -0.3875495481370965
-0.2084281140662886 0.949585379018128 -0.2341907966205495
-0.2269802690311094 0.968622754348241 -0.1012418748808604
-0.2416127146612263 0.970312154096488 0.0108452628675114
-0.2554346935798882 0.9611475018195388 0.1046355439695693
-0.2696080022974274 0.9452514431526656 0.1838783138790238
-0.2846678458609385 0.9248018624117265 0.2523999461424155
-0.3009190915095856 0.9006116153141535 0.3136023257666885