# OOMMF: rectangular mesh v1.0
# Segment count: 1
# Begin: Segment
# Begin: Header
# Title: 
# Desc: time = 3.6e-10
# Desc: stepsize = 1.2913913585074554e-13
# Desc: step = 2302
# meshunit: m
# valueunit: (none)
# valuemultiplier: 384000.0000000001
# xmin: 0
# ymin: 0
# zmin: 0
# xmax: 9.357999999999999e-08
# ymax: 9.357999999999999e-08
# zmax: 2.3395e-08
# ValueRangeMaxMag: 1
# ValueRangeMinMag: 0
# meshtype: rectangular
# xbase: 1.16975e-09
# ybase: 1.16975e-09
# zbase: 1.16975e-09
# xstepsize: 2.3395e-09
# ystepsize: 2.3395e-09
# zstepsize: 2.3395e-09
# xnodes: 40
# ynodes: 40
# znodes: 10
# End: Header
# Begin: Data Text
0 0 0
0 0 0
0 0 0
0 0 0
0 0 0
0 0 0
0 0 0
0 0 0
0 0 0
0 0 0
0 0 0
0 0 0
0 0 0
0 0 0
0 0 0
0 0 0
-0.8410248623679121 0.02404714743148649 -0.540461761440569
-0.8504640564557904 0.04154450804230522 -0.5243900671525776
-0.8604089995713421 0.02143449335705015 -0.5091531360515895
-0.8652797725654192 -0.01426543127307699 -0.5010862327581243
-0.8633360075696218 -0.05439230115602098 -0.5016895609923514
-0.8546887147363545 -0.09031904408988865 -0.5112236997411277
-0.8413825314835067 -0.1107664233161378 -0.5289671399814508
-0.8296587878529595 -0.09303995377837977 -0.5504633164337787
0 0 0
0 0 0
0 0 0
0 0 0
0 0 0
0 0 0
0 0 0
0 0 0
0 0 0
0 0 0
0 0 0
0 0 0
0 0 0
0 0 0
0 0 0
0 0 0
0 0 0
0 0 0
0 0 0
0 0 0
0 0 0
0 0 0
0 0 0
0 0 0
0 0 0
0 0 0
0 0 0
0 0 0
-0.7869988617634591 0.2383304550549101 -0.5690618470573641
-0.814598573033037 0.2666132573575327 -0.5151179824212563
-0.8510711203642577 0.2481720989013272 -0.4626970471148877
-0.8870668669210219 0.1990352332549717 -0.4165301304036249
-0.9184222395556134 0.1165466262403277 -0.37804427492246
-0.9311496872302161 0.07499137946180393 -0.356842476419899
-0.9389079373938415 0.03515025198616881 -0.3423687264984215
-0.9421658028744646 -0.00855072143937979 -0.3350380352389583
-0.9404121228842323 -0.05400946199496445 -0.3357201470680388
-0.9336808170865522 -0.09784145370211157 -0.3444810324851655
-0.9224976658187318 -0.1379131762255968 -0.3605246349174469
-0.9060818269871695 -0.1796415754297068 -0.3830726134569342
-0.8690235523258646 -0.2616686992857024 -0.4199137498547331
-0.8277628974873773 -0.3114187891064362 -0.4667193196502392
-0.7867744345421986 -0.3306207340903908 -0.5212254016645146
-0.7561491491170553 -0.3026848074747222 -0.5801899444264295
0 0 0
0 0 0
0 0 0
0 0 0
0 0 0
0 0 0
0 0 0
0 0 0
0 0 0
0 0 0
0 0 0
0 0 0
0 0 0
0 0 0
0 0 0
0 0 0
0 0 0
0 0 0
0 0 0
0 0 0
0 0 0
0 0 0
-0.7597006352955378 0.3340858219488472 -0.5578903192423394
-0.7971139632035038 0.3610739828112825 -0.4839782108760689
-0.8518066492562572 0.3227772556876525 -0.4126018365126056
-0.8854098481808784 0.3003716899371485 -0.3547199580353703
-0.9150581537353746 0.2660141834028696 -0.3031584231238048
-0.9413095491643615 0.216214196367872 -0.2592060067609958
-0.9619671970038416 0.1542760331416334 -0.2254285196834094
-0.9738328561367934 0.09998341103130497 -0.2040903864149419
-0.9804294232256049 0.04853253521150177 -0.1907950185394042
-0.9828358304937922 -0.003078631287873551 -0.1844566407776385
-0.9811754347180328 -0.05504747171035936 -0.185106839863297
-0.9754356261559534 -0.1066576514486755 -0.192742015692468
-0.9654186845591622 -0.1581100621597399 -0.2072871721740151
-0.9498138806790424 -0.212385809365687 -0.2296646687009118
-0.9247145555398456 -0.2742498081904404 -0.2639886995313476
-0.8940444489278871 -0.3242339236311212 -0.3091227686664291
-0.8602111914425455 -0.3588767989640648 -0.3622763438071857
-0.8225469450593565 -0.3815819114403893 -0.4216773269159945
-0.7627771410631047 -0.4196386524174363 -0.4920106040207613
-0.7217411734672917 -0.3931240543050888 -0.5696868933447443
0 0 0
0 0 0
0 0 0
0 0 0
0 0 0
0 0 0
0 0 0
0 0 0
0 0 0
0 0 0
0 0 0
0 0 0
0 0 0
0 0 0
0 0 0
0 0 0
0 0 0
0 0 0
0 0 0
-0.7626903144623089 0.4151541100386085 -0.4959340169250694
-0.813433422928415 0.4135878803016568 -0.4089879359229857
-0.8528478057810507 0.4023777719531351 -0.3327803311682912
-0.8905030948148288 0.3698426802152378 -0.264991754619688
-0.9197091044154696 0.3324269741443605 -0.2088718988196337
-0.9439973686868615 0.287782125396258 -0.161401413298317
-0.9643270199117452 0.234756005372253 -0.1223234099009459
-0.9800951525412676 0.1755572149677289 -0.0926992785186785
-0.9905062463499326 0.1165618734970241 -0.07287458808549227
-0.9964364263901987 0.05848110233582778 -0.06078164881208992
-0.9984736979699125 0.0006936645822721751 -0.05522493360553013
-0.9968093803665991 -0.05704194355760924 -0.05583257013900439
-0.9914265626898453 -0.1146949807646116 -0.06259738157785294
-0.982081068832779 -0.1725118529615392 -0.07587117257590072
-0.9680956820196958 -0.2311187893902202 -0.09682383820949521
-0.9485405478811438 -0.2898326682010159 -0.1275454956822024
-0.9244303720073048 -0.3423860274674955 -0.167929436089874
-0.8964016565086784 -0.3866127246094746 -0.2167825439894447
-0.863315294014007 -0.4237556962190974 -0.2740762905531535
-0.821289953115825 -0.456238361599457 -0.3425337506232765
-0.777570635510899 -0.4677605000617499 -0.4202190159585333
-0.7224600192205647 -0.4687297372533556 -0.5082754706281045
0 0 0
0 0 0
0 0 0
0 0 0
0 0 0
0 0 0
0 0 0
0 0 0
0 0 0
0 0 0
0 0 0
0 0 0
0 0 0
0 0 0
0 0 0
0 0 0
-0.6578824847119259 0.506436617071431 -0.5574159929518594
-0.7089053339376705 0.5403790633781169 -0.4532589716456902
-0.7882443009903827 0.5044045981078558 -0.3524867704805889
-0.8373467474356704 0.4765198140531618 -0.2679165753992149
-0.8736868158634943 0.4453261083510674 -0.1958468917476144
-0.9042147766807728 0.4054441470062999 -0.1342038795656575
-0.9293707594757831 0.359685892191469 -0.08304246136665669
-0.9503829480426996 0.3083988932596909 -0.04077222959153313
-0.9677890797267901 0.2516734372579622 -0.006691647056945959
-0.9814371894641966 0.1908265253701624 0.01913845217798858
-0.9910284115664179 0.1284401337239504 0.03695699550986245
-0.9966875524279166 0.06573077706501382 0.04788932847386786
-0.998597554847404 0.003002080819310523 0.05285745892057403
-0.9968489834623728 -0.0596515977124133 0.05228566782962496
-0.9914392670120966 -0.1221325571286889 0.0461716180756511
-0.9822701219327492 -0.1843463242284961 0.03408577858380234
-0.9691535575099905 -0.2459949124719211 0.01509586048097077
-0.9519905832335972 -0.3058940012210174 -0.01194945402732008
-0.9311552893830385 -0.3615384495967712 -0.04732627723741049
-0.9067736926910118 -0.41170344259029 -0.09089414504141502
-0.8781566509867241 -0.4564294351507548 -0.1432238355014389
-0.8438530136983132 -0.4955238147234389 -0.2058354690382712
-0.8033076662919356 -0.5262806280624093 -0.2787929227990544
-0.7490773377321109 -0.5538519870524901 -0.3634984436475365
-0.6629087983619665 -0.5892391086534959 -0.4618973889161176
-0.6068120637017668 -0.555646659786461 -0.5683624801252734
0 0 0
0 0 0
0 0 0
0 0 0
0 0 0
0 0 0
0 0 0
0 0 0
0 0 0
0 0 0
0 0 0
0 0 0
0 0 0
-0.6357125827868403 0.553191346103202 -0.5383761200898602
-0.698389724672736 0.5753983682500888 -0.4256389435738642
-0.7492964318003763 0.5792776543105724 -0.3209240665759815
-0.8006136334478529 0.5551847787620402 -0.2253612020032977
-0.8409191385052315 0.5213020627092495 -0.145255505612355
-0.8730975431102891 0.4811627783768123 -0.07863244190207401
-0.9001510484255837 0.4349635019863627 -0.02312665038611343
-0.9231968837766429 0.3836606317451476 0.02262815578013149
-0.9428607424108701 0.3277375238636016 0.06001446385812095
-0.9593399191675672 0.2675579793635782 0.08988685760690635
-0.9724785500755089 0.203965678703073 0.1126209197006942
-0.9820036198725959 0.1382991868970835 0.1286165831482214
-0.9877614747175267 0.07159877088293615 0.1385672582968623
-0.9896975225424514 0.004484958001309328 0.1431038050684192
-0.9878017820783749 -0.06263821497444827 0.1425625944895828
-0.9820895244032849 -0.1294182404318915 0.1369346015470244
-0.9726036138201387 -0.1954478247881988 0.1258664298753547
-0.9594395592087012 -0.2601099340063241 0.1087131751750373
-0.942802450624842 -0.3223928626992613 0.08477252607046223
-0.9230074945878386 -0.3810233049359822 0.05365077846911755
-0.9001834943244436 -0.4352518041428336 0.01501810694602429
-0.8740203578226545 -0.4848397415818304 -0.03191925898924919
-0.8437093257418032 -0.5294537765577594 -0.08850577464232248
-0.8078987644411186 -0.5682767007672495 -0.1560806771500038
-0.7632123661927132 -0.6011858955502171 -0.2368172356100861
-0.7065039672355499 -0.6247230977273429 -0.3325254808979031
-0.6501107343481016 -0.6208636249309541 -0.4380461075308934
-0.5821029521493599 -0.5981531507331205 -0.5507893983793083
0 0 0
0 0 0
0 0 0
0 0 0
0 0 0
0 0 0
0 0 0
0 0 0
0 0 0
0 0 0
0 0 0
-0.5924353677416976 0.5990323225686671 -0.5386841482415715
-0.66048276310827 0.6252442219615457 -0.4157309015944879
-0.7133236282115062 0.6319503692702109 -0.3029985680072054
-0.7569283923367911 0.6213141911173146 -0.2025539058884756
-0.7962041141492561 0.5940433109397747 -0.1147673879615109
-0.8299758133655911 0.5562732876676154 -0.04123322271648663
-0.8590466910519462 0.5115254713301679 0.01950576256267102
-0.8845441829285456 0.4612362720084838 0.06958943763953808
-0.9070534448767462 0.4061953114826418 0.1107222519042439
-0.92676773446393 0.3468378980166743 0.1442395190506728
-0.9435901695705368 0.2835344828539675 0.1710140021243246
-0.9572189977331261 0.2168925509808556 0.191544803395462
-0.9672781864297406 0.1477986255419251 0.2062243349973741
-0.9734514408783639 0.07715238074815906 0.2154989614748247
-0.9755353799743928 0.005724574845230492 0.2197679495764974
-0.9734449477809742 -0.06582117043830064 0.2192544347597744
-0.9672112324610854 -0.1368550803676872 0.213946532523109
-0.9569837993533427 -0.2067095937506486 0.2036004705954349
-0.9430351305035415 -0.2746164761471655 0.1878045091702583
-0.9257487588282324 -0.339700385237074 0.166111058625759
-0.9055454534251597 -0.4011296025179031 0.1381393273649851
-0.8827196450363356 -0.4583789498410319 0.1034155046864729
-0.8572962820808842 -0.5111853699023713 0.06109502703222584
-0.8289444488764326 -0.5592439774598273 0.009862776072642179
-0.7968718011429775 -0.6019095442879258 -0.05196376659026791
-0.7596653667774462 -0.6378982626749879 -0.1264687194333833
-0.7162624041116489 -0.663862105033161 -0.2150703930278197
-0.6678205492152803 -0.6737987102789765 -0.3162451771524569
-0.6092891798234297 -0.6667974651113578 -0.4291244992670069
-0.535323836286266 -0.6399771159547757 -0.5512328739815524
0 0 0
0 0 0
0 0 0
0 0 0
0 0 0
0 0 0
0 0 0
0 0 0
0 0 0
-0.5487099364330418 0.6230351232197069 -0.5574447424581666
-0.6133684524258597 0.6652504458813134 -0.4257005823620859
-0.6656473454628762 0.6819740212276341 -0.3030264771415799
-0.7086481798925827 0.6782496259270154 -0.1944098816027439
-0.7454445975403249 0.6589360180410007 -0.100576717615027
-0.7785464956974119 0.6272470665639209 -0.02065118699338592
-0.8086046255580986 0.5865411361831093 0.04613084750006143
-0.8360687509440058 0.539169656166392 0.1014156080903926
-0.8612761583725984 0.4863794154040871 0.1471001131546705
-0.8843025885073766 0.4287938276131796 0.1847830764978003
-0.9049778348316005 0.3667517093266579 0.2156578358638581
-0.9229398100117584 0.3005666261461162 0.2405032439336315
-0.9377000486940946 0.2307279054183941 0.2597753882497967
-0.9487340929597177 0.157960186419053 0.273773995044013
-0.9555816410750776 0.08313105651744891 0.2827595350868896
-0.9579193058994458 0.00715095540636768 0.2869485445544191
-0.9555992818779304 -0.06906838516642297 0.2864604172392508
-0.9486655570423373 -0.1446160817771381 0.281282508828721
-0.9373550905022761 -0.2185769357033743 0.2712739528373349
-0.922080955740429 -0.2900428403594756 0.2562066779321419
-0.9033855654765355 -0.3581667046041645 0.2358201259469448
-0.8818518207101982 -0.422269337401433 0.2098236712114791
-0.8579854794838074 -0.4819304233057526 0.1777750941141041
-0.8321143131976696 -0.5369265538246796 0.1389087670722182
-0.8043159076831004 -0.5870301546292935 0.09204085073388736
-0.7743540491342905 -0.6317512197479529 0.0355837453945178
-0.7416545614435639 -0.6700021697197103 -0.03233580153382852
-0.7054739693650862 -0.699616970996002 -0.1133250742009389
-0.6648485953455536 -0.7174134487378768 -0.2080727969655558
-0.6169124324218256 -0.7202612727070504 -0.3172424148215466
-0.5585866801487985 -0.7031614770462244 -0.4399373341267089
-0.4878126773999074 -0.6602741227610271 -0.5710314129538672
0 0 0
0 0 0
0 0 0
0 0 0
0 0 0
0 0 0
0 0 0
0 0 0
-0.5807774114075542 0.6775913771900277 -0.4511845785889204
-0.6157091498998432 0.7198645941790157 -0.3204640522384579
-0.6542029061432555 0.7287165996466306 -0.2024615395406512
-0.6893821942958731 0.7173841224795258 -0.1005594898658861
-0.7213241273213512 0.6924533590882441 -0.01413678999978261
-0.7511470148444523 0.6575274519366123 0.05861580025908986
-0.7794733050845863 0.6149331880339998 0.1194928488021463
-0.8065327215674809 0.5661234390604 0.1703209346715119
-0.8322915469750121 0.5118689936859799 0.21279312521048
-0.8564932398502348 0.4525259001797463 0.2482733166438921
-0.8786921003672183 0.388282098696122 0.2777358539770849
-0.8982945825184407 0.319363171343782 0.3017847043958027
-0.9146146420541555 0.2461880149977142 0.3207359004097202
-0.9269524498709482 0.1694384725628765 0.3347383451201941
-0.9346895629028737 0.09003419401855688 0.3438739084429981
-0.9373777119433873 0.009062956288860918 0.3481966225785167
-0.9348032922459821 -0.07229057859422001 0.3477310412554295
-0.9270209472631352 -0.1528084379427738 0.3424642238670316
-0.9143536339653739 -0.2313028847641928 0.3323498270709302
-0.8973568577168755 -0.3066879563914486 0.3173218670576169
-0.8767463179851853 -0.3780610289366598 0.2972974138783817
-0.853296848875904 -0.4447782807177576 0.272133733117025
-0.8277348072342711 -0.5064795515086502 0.2415234001011917
-0.8006501484674279 -0.5630166939050976 0.2048695734931355
-0.7724322664670084 -0.614298061158023 0.1612026233599632
-0.7432165264408739 -0.6600851794530878 0.1091638708160638
-0.7128353272742707 -0.6997499241290113 0.04707270834811102
-0.6807669058437954 -0.7320071509377332 -0.02686914371332303
-0.6460063519886869 -0.7547107757524961 -0.1144003415787465
-0.607002733179084 -0.7644250941511611 -0.2172601144828693
-0.5634861466670658 -0.7546366885881528 -0.3361648862552556
-0.5232865808322992 -0.7117105994745212 -0.4686567794414785
0 0 0
0 0 0
0 0 0
0 0 0
0 0 0
0 0 0
0 0 0
-0.4603417237073709 0.7353322526706469 -0.497365032542938
-0.5444651508925908 0.7612586977673359 -0.3521972381167801
-0.591027098057807 0.7745990430936028 -0.2251295000657222
-0.6270719947788148 0.7704748351708544 -0.1146701431609922
-0.6586228756944472 0.7521905812035461 -0.02062127931646579
-0.6879474838630918 0.7233892171908155 0.05861996160438748
-0.7162386952575042 0.6865167662818655 0.1252871143802033
-0.7440396570051142 0.6430091088603682 0.1815055776727175
-0.7714468014507464 0.5936121197371189 0.2291167471675009
-0.79824551929295 0.5386187098037173 0.2696182048343681
-0.8239859010944499 0.4780763343591801 0.304122102654931
-0.8480274452068 0.4119756159039543 0.3333549820785418
-0.8695789716375261 0.3404190753711818 0.3576971696970103
-0.8877533994981958 0.2637592151274906 0.3772598283871828
-0.9016501258934988 0.1826810383942666 0.3919881231458806
-0.910462828578658 0.09821240144889064 0.4017608268338151
-0.9135936760150889 0.01167117987834164 0.4064607960252549
-0.9107485528909253 -0.07543117164937718 0.4060138073399564
-0.9019911862318943 -0.1615133207030766 0.4004064774643945
-0.8877426941192997 -0.2450600758594852 0.3896902208903251
-0.8687244170132371 -0.3247535007913759 0.3739693182719095
-0.8458554539365345 -0.3995789392168632 0.3533627348492553
-0.820127922495935 -0.4688837570854374 0.3279301954440085
-0.7924888048530935 -0.5323674124193982 0.2975675257422921
-0.7637486705700048 -0.5899969114139562 0.2619000052014931
-0.734517900941828 -0.6418673207715337 0.2202039866160102
-0.7051542848403956 -0.6880334632566906 0.1713691571147909
-0.675701309353841 -0.7283225994150225 0.1139031681686218
-0.6457925574485871 -0.7621270760108062 0.04598143924706741
-0.6144995930812293 -0.7881632398879452 -0.03448126146678544
-0.5801360930196483 -0.8041361238915583 -0.129642615788783
-0.5399233660624326 -0.8064857910532536 -0.2409635399993523
-0.4875183299830774 -0.7916837725102737 -0.3681883787878319
-0.3959130293745237 -0.7634774488668783 -0.5102499958287215
0 0 0
0 0 0
0 0 0
0 0 0
0 0 0
-0.3843736744108867 0.7341893745561631 -0.5596631493217178
-0.4582724626672256 0.7888839583287099 -0.4094489592764184
-0.5159656819218914 0.8136830153122804 -0.2677673723051269
-0.5572142507198968 0.8176010294931608 -0.145054594433914
-0.5901986832474079 0.8062106575032784 -0.04110827193104963
-0.6194997312838442 0.7836370892653491 0.04618436171450228
-0.6474081551134125 0.75271626774514 0.1195027236696885
-0.6750557122549358 0.7150929370792075 0.181498971598777
-0.7029069068889903 0.6715340511540335 0.2344438064620263
-0.7309864410643421 0.6222419061196438 0.2801318140602365
-0.758999071051343 0.5670902899597355 0.3198890638589899
-0.7863932740983828 0.5058101571258903 0.3546007662161879
-0.8123971731093685 0.4381548743730567 0.3847481503360835
-0.8360523790574423 0.3640583006276815 0.4104606841300087
-0.856268985761397 0.2837797607443257 0.4315929464380082
-0.8719186003693192 0.1980125725537204 0.447826948095651
-0.8819671659692314 0.107927489368663 0.4587870695549072
-0.8856288021651518 0.01513228477669759 0.4641472166597093
-0.8825046616178392 -0.07845490464194518 0.4637136510395246
-0.8726663529179415 -0.1708005646185155 0.4574719703007986
-0.8566554238168723 -0.2599802798162242 0.4455914484724907
-0.8353970544360021 -0.3443817677814134 0.4283841260590777
-0.8100538785762517 -0.4228422054794696 0.406223070576782
-0.7818619107668073 -0.4946956081588669 0.3794314269540749
-0.7519872540744085 -0.559730436535737 0.3481623301351596
-0.7214243514710064 -0.6180780278692185 0.3122922614634166
-0.6909325703611089 -0.6700638174959299 0.2713423367205569
-0.6609918965000129 -0.7160463887549041 0.2244265624037769
-0.631751643486633 -0.756250952381836 0.1702185594272951
-0.6029458595092094 -0.7905833386130706 0.1069311704233682
-0.5737486612902117 -0.8183934168345801 0.03232164831054993
-0.5425290333342292 -0.8381555460799106 -0.05619189056183574
-0.5063783063467487 -0.8471239400290959 -0.1611274063931356
-0.4600943433765373 -0.8411503653074561 -0.2842169209178888
-0.3952517489845045 -0.8144271256293116 -0.4248346878067601
-0.313784396361511 -0.7576957839582786 -0.572220631899874
0 0 0
0 0 0
0 0 0
0 0 0
-0.4097790605531047 0.7740367457492613 -0.482647115149472
-0.445853534620948 0.8311436724651919 -0.3322872573347951
-0.4844561350426081 0.8527016594470096 -0.1954536599705759
-0.5177118873749709 0.8519623168376205 -0.07832376624830541
-0.5468869952984671 0.8369744737767321 0.01970646136617258
-0.5741352604598907 0.8124427085522407 0.1015162450889113
-0.6009537970311748 0.7809202835688785 0.1703468360273109
-0.6281756869298859 0.7435782857967003 0.2290996273279515
-0.6561452122643902 0.7007241610246876 0.2801055347164102
-0.6848413439487163 0.65215119351601 0.3251017600908355
-0.7139435560273852 0.5973744001619939 0.3652785578679229
-0.7428600714323123 0.5358081609761761 0.4013334385556573
-0.7707389135165855 0.466928402844917 0.4335197732606524
-0.7964847514118404 0.3904419009559132 0.4617002953717396
-0.8188074161366063 0.3064618519056679 0.4854230614693151
-0.8363250121355347 0.2156639318238311 0.5040332752773204
-0.8477300641834983 0.1193780442405512 0.5168197179217743
-0.8519993476743553 0.01956687531410846 0.523177072273733
-0.8485965709627176 -0.08133794801800918 0.5227504165111077
-0.8375996848184972 -0.1807261891789425 0.515523823442536
-0.8197012443636141 -0.276154543164873 0.5018252068979221
-0.7960789877731668 -0.3656474109600521 0.4822449751778244
-0.7681855279040086 -0.4478745733033379 0.4574924713120339
-0.7375266005374301 -0.5221819409856653 0.4282295342548719
-0.7054831206372475 -0.5885011130489166 0.3949177210965813
-0.6731987632806392 -0.6471886088719875 0.3577014532592221
-0.6415246362436829 -0.6988432625832935 0.3163293148513868
-0.610994923410091 -0.7441308673181044 0.2701008253810093
-0.5818044383485592 -0.7836183154787132 0.2178208694414316
-0.5537616803181031 -0.8175953969910641 0.1577522368472
-0.526196866113173 -0.8458407458434147 0.08758019618458894
-0.4978110161719251 -0.8672740917636118 0.004454428524201211
-0.4664972892248379 -0.8794330839573349 -0.09475088383318082
-0.429437543535637 -0.877689942640688 -0.2127058080764679
-0.3850260170730533 -0.8540446269734653 -0.3498038612059838
-0.3423817553970562 -0.795171794352319 -0.5004763241530445
0 0 0
0 0 0
0 0 0
-0.2930638597280441 0.7666314376485883 -0.5713053587444809
-0.3712408119002317 0.8319865902062462 -0.4122845780485125
-0.4128009797461876 0.8716084337458475 -0.2643749030140677
-0.4448491278783031 0.8855818464384287 -0.1336190356372013
-0.4726409907531163 0.8809636675067072 -0.02266076770641089
-0.4983966337954844 0.8641258793737198 0.06990894090118419
-0.5235916025261393 0.839143129739829 0.1472774306353606
-0.5491935803531972 0.8081341438032347 0.2128511614209528
-0.5757608654972893 0.7718938394683942 0.2695910353712695
-0.6035265648846869 0.7303915208815085 0.3198185605978591
-0.6324471164385533 0.6831027132176561 0.3652140853023543
-0.6622150860879821 0.6292285282496708 0.4068693143925202
-0.6922466902572185 0.5678637628331105 0.4453372505067899
-0.7216587871612431 0.4981626785717835 0.4806688471194585
-0.7492571749746555 0.4195329863215057 0.5124507382540858
-0.7735665399228018 0.3318631762383634 0.5398718742154005
-0.7929358613062057 0.2357545511312762 0.5618474094231243
-0.8057402969548202 0.1326914837175121 0.577213603453698
-0.8106639467988325 0.02505965736065911 0.5849751951437818
-0.8069931170463217 -0.08406012761854628 0.5845476917964993
-0.794809755047585 -0.191315628271953 0.5759130000790965
-0.7749937586012959 -0.2936049968306587 0.5596255712216023
-0.7490300414861192 -0.3885156295419598 0.5366652611758252
-0.7187063970157912 -0.4745502047164366 0.5081960429717722
-0.6858155390120138 -0.5511212861430114 0.4753129226201762
-0.651937969754762 -0.6183824663672238 0.4388393884801454
-0.6183264474209033 -0.6769888925382904 0.3991972492385482
-0.5858707591999639 -0.7278593930939891 0.3563371400784758
-0.5551059672815087 -0.771973223909188 0.3097009955678457
-0.5262284191178443 -0.8101989010601419 0.2581886744876172
-0.499093594780827 -0.8431251072615303 0.2001140603605456
-0.473178216582894 -0.870844495401271 0.1331624578503161
-0.4474999912444604 -0.8926273268594368 0.05440784116268101
-0.4205116844409453 -0.9064282221306907 -0.03946899255914282
-0.3900375278954488 -0.908253253694307 -0.1514818602569677
-0.3532249254632489 -0.8917921444502936 -0.2827347221835835
-0.30471669084913 -0.849874762032481 -0.4299542152115608
-0.2183486174459532 -0.7816049652192184 -0.5843094724579644
0 0 0
0 0 0
-0.3201449156006325 0.7962641668639489 -0.5132938822775165
-0.348055888430718 0.8682816090235447 -0.3534743922269155
-0.3752968167807157 0.9033121942954355 -0.2077964844539656
-0.3998341387523637 0.9128998583098989 -0.0821371425478223
-0.4228082178486272 0.9059187215612537 0.02333411332129221
-0.4453595347398512 0.8884174676653692 0.1112173006476765
-0.4683481084749977 0.8639428819500773 0.185074974039404
-0.4923623831172587 0.8341967322170842 0.2483849746853285
-0.5177620013328325 0.7996578165790134 0.30408861596565
-0.5447071792305792 0.7600302765946813 0.3544687116715347
-0.5731606543902202 0.7145316815502806 0.4011624861822231
-0.6028622068595325 0.6620807537229213 0.4452035883617091
-0.6332811565417554 0.6014471996275386 0.4870485015163566
-0.6635574716578911 0.5314176678391385 0.5265802352114991
-0.6924524337359167 0.4510182396395947 0.5631093806052306
-0.7183453442885869 0.3598098320213162 0.5954131768106106
-0.739325680034255 0.2582288189373043 0.6218644674783496
-0.7534243868415565 0.1478814458558621 0.6406892938734065
-0.758982337422382 0.03164125660421209 0.6503419426435325
-0.7550660949480397 -0.08659721903455869 0.6499046960250389
-0.7417576749325061 -0.2025300468914586 0.6393568110099914
-0.7201610033014746 -0.3122271616957173 0.6195823825959303
-0.6921173462770875 -0.4127671785581886 0.5921121813368427
-0.6597789893304077 -0.5025129432907139 0.5587239274126795
-0.6252191668001436 -0.5810318894006035 0.5210594370753674
-0.5901801393767419 -0.6488023094319497 0.4803571237746121
-0.5559687678721791 -0.7068616380167264 0.4373160800279371
-0.5234566591372489 -0.7564963293623076 0.3920541157368775
-0.4931300805168461 -0.7990072918722677 0.3441076448211997
-0.4651470520195987 -0.8355370053079364 0.2924314154780948
-0.4393742953212107 -0.8669184060697133 0.2353777938305494
-0.4153902789907205 -0.893490397065133 0.1706629030352
-0.3924496055273231 -0.9148161455503315 0.09536627790725104
-0.369421031140031 -0.9292422872714098 0.006072338761527265
-0.3447482043853879 -0.9332835680723129 -0.1006501720776622
-0.3165650573606903 -0.9209655529841575 -0.2271761754119642
-0.2834010486505512 -0.8834675644984699 -0.3730534922808114
-0.2485271996820812 -0.8091164970261896 -0.5325079579295041
0 0 0
0 0 0
-0.3006611256633989 0.8358530669061551 -0.4592956978444191
-0.3132251249356292 0.9007345044999955 -0.3009441368629849
-0.3309500758301439 0.9300372907187123 -0.1596956016320397
-0.3495972783811566 0.9360704177375019 -0.03941974105986184
-0.3685361383490448 0.9276066326952485 0.06104956765248749
-0.3880722733868063 0.9101553062115655 0.1449732016730232
-0.4086297397530042 0.8867463608738744 0.2161079065335929
-0.4305576139809862 0.8587063448387438 0.2779272465532738
-0.454100063888643 0.8262502108186788 0.3333222481299721
-0.4793891061288757 0.7888702464023594 0.3845384496588578
-0.506422065417182 0.7455713118798176 0.4331975421910921
-0.5350151979465725 0.6950173576458771 0.4803224027016983
-0.5647329952886702 0.6356526104577184 0.5263291772746163
-0.5947986452607992 0.5658572867886 0.5709817007436944
-0.6240039239715869 0.484192853064343 0.6133321970265979
-0.6506591376211112 0.3897730424590201 0.6517051956232899
-0.6726504819888087 0.2827451953403148 0.6838102687092308
-0.6876812359717963 0.1647678883131943 0.7070686392940311
-0.6937264589830384 0.03925180262816376 0.7191681973622678
-0.6896004361363954 -0.08890918670170199 0.7187116215844396
-0.6753795215762683 -0.2142085917652837 0.7056749825871287
-0.6524156263032542 -0.3316969095357411 0.6814183815834223
-0.6229273702381064 -0.4378876507706975 0.648240616369228
-0.58941857911911 -0.531068748865269 0.6087295972497865
-0.554191930201732 -0.6110850084662048 0.5651959102179851
-0.5190782126203008 -0.6788592688750159 0.5193340950153305
-0.4853640092660476 -0.7358948633493064 0.4721022438045531
-0.4538405487730419 -0.7838855323777504 0.4237360362516208
-0.4248994178763424 -0.82445542964431 0.3738097500311638
-0.3986252843757804 -0.858995519483542 0.3212858231598892
-0.3748608181489362 -0.8885405808752398 0.2645278872909267
-0.3532334755103902 -0.9136254545099037 0.2012824896766282
-0.3331450206164534 -0.9340552236714349 0.1286671456533026
-0.3137404451616753 -0.9485233312192305 0.04324838959461198
-0.2939237934100611 -0.9540284785029436 -0.05863843341016048
-0.2726378139110338 -0.9451101028989906 -0.1800986280460558
-0.2500589910926738 -0.9130670585898354 -0.3221475554646033
-0.2314533518718105 -0.8455321621454148 -0.481149362137168
0 0 0
0 0 0
-0.2510402939834394 0.8755938135550086 -0.412691464002958
-0.2633374634800269 0.9300270382391586 -0.2563261369271648
-0.2784992746387511 0.9529088485557692 -0.1200120009407705
-0.2940763799524802 0.9557696477326264 -0.004843885536976203
-0.3100466300885225 0.9463261915810948 0.09131169858441969
-0.3267884148868759 0.9293067956908548 0.1720413071867293
-0.3446586689698048 0.9072235687385182 0.2411551331183087
-0.363935749030991 0.8810762123434471 0.3020852174797302
-0.3848279242512125 0.850867102315392 0.3576767296231483
-0.4074745586601592 0.8159240116603479 0.4101615428593864
-0.4319240524797963 0.7750811976266813 0.4611840738523171
-0.4580847546855293 0.7267806563748546 0.5118087875799257
-0.485646369454314 0.6691554950824081 0.5624753570040743
-0.5139722902461564 0.6001617227917233 0.6128934584043063
-0.5419751193885363 0.5178315537529679 0.6619013913730417
-0.5680146406437241 0.4207152159901672 0.7073599331660844
-0.5898985582713181 0.3085254524504496 0.7462115893898091
-0.6051000617625517 0.1828628346042793 0.774864568150747
-0.6112740070781001 0.0476895354318865 0.7899808836174286
-0.6069853608772099 -0.09091782793151368 0.7894952312997077
-0.5922973536813235 -0.2259798838860707 0.7733802020358025
-0.568796268217046 -0.3513400290220754 0.7436605336234599
-0.5390306326916817 -0.4629281558673204 0.7036643372555459
-0.5057632820601513 -0.5590662685679816 0.6569995508896613
-0.4714075600296024 -0.6400228749761738 0.6067500571521764
-0.4377682150378616 -0.7072824546601371 0.5550770390067448
-0.4060218555156475 -0.7628787904943876 0.5031522670697715
-0.3768208793789002 -0.808929823375567 0.4512632997682018
-0.3504287597612634 -0.8473678693207111 0.3989578654132046
-0.326836672545676 -0.8797993500759725 0.3451534341204887
-0.3058405847686149 -0.9074193089151863 0.2881869783947171
-0.2870742535726093 -0.9309118070140238 0.2258131539516994
-0.2699992019342844 -0.9502723291459212 0.1551867630129427
-0.2538621020550101 -0.9644890990593076 0.07290274985195229
-0.2376578637504348 -0.971032953675127 -0.02477383043733396
-0.220236465150019 -0.9651606777610836 -0.1412825733131646
-0.201027409361191 -0.9391471390284114 -0.2785509503489041
-0.1831528443371187 -0.8813972217209413 -0.435423900531228
0 0 0
-0.08372680392797674 0.8356818439619523 -0.54279432382474
-0.1694854556664676 0.9111270376300291 -0.3756623505450831
-0.2017506218941301 0.9538521951607187 -0.2224020601352641
-0.2200437956573583 0.9713369437915608 -0.08991812730686073
-0.2344550171419421 0.9718898283375688 0.02147106217546319
-0.2480636309472278 0.9619572567149225 0.1144669002584492
-0.2620186802468711 0.9455859224012026 0.1929079432225492
-0.2768501202250022 0.9248813214941953 0.2606694306637288
-0.2928616648498151 0.9005981421070205 0.3211775703482063