# OOMMF: rectangular mesh v1.0
# Segment count: 1
# Begin: Segment
# Begin: Header
# Title: 
# Desc: time = 2e-11
# Desc: stepsize = 7.49160701382924e-14
# Desc: step = 126
# meshunit: m
# valueunit: (none)
# valuemultiplier: 384000.0000000001
# xmin: 0
# ymin: 0
# zmin: 0
# xmax: 9.357999999999999e-08
# ymax: 9.357999999999999e-08
# zmax: 2.3395e-08
# ValueRangeMaxMag: 1
# ValueRangeMinMag: 0
# meshtype: rectangular
# xbase: 1.16975e-09
# ybase: 1.16975e-09
# zbase: 1.16975e-09
# xstepsize: 2.3395e-09
# ystepsize: 2.3395e-09
# zstepsize: 2.3395e-09
# xnodes: 40
# ynodes: 40
# znodes: 10
# End: Header
# Begin: Data Text
0 0 0
0 0 0
0 0 0
0 0 0
0 0 0
0 0 0
0 0 0
0 0 0
0 0 0
0 0 0
0 0 0
0 0 0
0 0 0
0 0 0
0 0 0
0 0 0
-0.8833202598389809 0.09204034631741932 -0.4596453994197746
-0.8954561024913678 0.09635143866279142 -0.4345972489312131
-0.9083921065588432 0.06355996326367257 -0.413260101886823
-0.9160414454270155 0.01519381785772263 -0.4007957312134076
-0.9164573801834631 -0.03784970807891789 -0.3983381351384818
-0.9096534718409041 -0.08717024672747255 -0.4061180976677355
-0.8975889456672773 -0.1218745579243738 -0.4236515983053095
-0.8862757260865926 -0.1202060719813727 -0.4472871981272115
0 0 0
0 0 0
0 0 0
0 0 0
0 0 0
0 0 0
0 0 0
0 0 0
0 0 0
0 0 0
0 0 0
0 0 0
0 0 0
0 0 0
0 0 0
0 0 0
0 0 0
0 0 0
0 0 0
0 0 0
0 0 0
0 0 0
0 0 0
0 0 0
0 0 0
0 0 0
0 0 0
0 0 0
-0.7918587835148837 0.3381554802037409 -0.5085376467662008
-0.8228591278563965 0.3571751699267168 -0.4419601268114932
-0.8637649156945968 0.3297907301115022 -0.3809832604559255
-0.9045064544829965 0.271891708345233 -0.3285467588208855
-0.9410677356366477 0.1809360019073954 -0.2857510807634481
-0.9573467938703875 0.128428481169186 -0.258830526581903
-0.9679639879371321 0.07678885782195397 -0.2390589663058938
-0.9735961354917816 0.02083327039406268 -0.2273247452437935
-0.9737388092282001 -0.03721238032980023 -0.2246062558190145
-0.9684139823913289 -0.09387533137763192 -0.2310016901836566
-0.9581625818838224 -0.1468530333559018 -0.245679981422779
-0.9423445365395655 -0.2009739147395459 -0.2675747746860541
-0.9068197082323499 -0.292449970173334 -0.3035638840623359
-0.8668075036775696 -0.353689158132217 -0.351494994257362
-0.8264809299357211 -0.386234709468945 -0.409575416320395
-0.7958642174846797 -0.3739054620339463 -0.4762298318970357
0 0 0
0 0 0
0 0 0
0 0 0
0 0 0
0 0 0
0 0 0
0 0 0
0 0 0
0 0 0
0 0 0
0 0 0
0 0 0
0 0 0
0 0 0
0 0 0
0 0 0
0 0 0
0 0 0
0 0 0
0 0 0
0 0 0
-0.7385202351371333 0.4419970200820479 -0.5091429038409375
-0.7795599144594233 0.4622595512722675 -0.422613827300501
-0.8401334058611948 0.4187774222338496 -0.3446756895738957
-0.8779493492718182 0.3894552878220709 -0.2784412306046255
-0.9117617520232487 0.3473428774222588 -0.2191881225147042
-0.9423114490505186 0.2892270861924713 -0.168513576903833
-0.9673358555866314 0.2183236420667027 -0.1288259671464165
-0.9828720676783832 0.1536393205064449 -0.1017715960960469
-0.9923909573448484 0.09073178651508276 -0.08323419186822159
-0.9970123337031077 0.02696580318498804 -0.07238267681200194
-0.9968829333535874 -0.03755138050428718 -0.06938523625792817
-0.9920270586102617 -0.1018066092397546 -0.07428141961604798
-0.9823427776910478 -0.1656606744508451 -0.08694370626288517
-0.9667653738575709 -0.2316730795545026 -0.1081309212009379
-0.9419683178945518 -0.3042797021842126 -0.1418081482905506
-0.9117767480038884 -0.3654061106918344 -0.1874607587430495
-0.8784029259490802 -0.4117525771329911 -0.2426275229821102
-0.8411639497851893 -0.4462161083550099 -0.3055067826191246
-0.7821897450998239 -0.4943304655327612 -0.3792315829500961
-0.7415477768570606 -0.4822228840452772 -0.4664418342531098
0 0 0
0 0 0
0 0 0
0 0 0
0 0 0
0 0 0
0 0 0
0 0 0
0 0 0
0 0 0
0 0 0
0 0 0
0 0 0
0 0 0
0 0 0
0 0 0
0 0 0
0 0 0
0 0 0
-0.7226335776767093 0.5229591523528684 -0.4520115456318875
-0.7780185890214202 0.517616062019823 -0.3560346717332573
-0.8213031875807274 0.5020614962234533 -0.270915721359251
-0.8634724017131219 0.4650061604379963 -0.1954090126746581
-0.8969914292711937 0.4220344403641071 -0.1315040188000943
-0.9255976158992668 0.3707088429433239 -0.07644610654058583
-0.9502942098699129 0.3098876840533966 -0.03017512153645095
-0.9703356408789151 0.2416825588463999 0.006187470368480334
-0.9845215071469878 0.1722648668735227 0.03228339520667441
-0.9934718052675106 0.102531664986709 0.05001029707536574
-0.9976551447369491 0.0322187807527238 0.06038346087054375
-0.9972291483387509 -0.03850001849771878 0.06365354883464412
-0.992224584368532 -0.1091593275450734 0.05978808731344901
-0.9825467057892459 -0.179586046972913 0.04848528307995274
-0.9678017121635489 -0.250072534573274 0.02869796831486664
-0.9474640345788208 -0.3198584955581389 -0.001563968959507662
-0.922741014663193 -0.3830891973242465 -0.04232832091879535
-0.8943330937983011 -0.4377300563161244 -0.09252413271488284
-0.8612207174048193 -0.4849326058855693 -0.1521158889194651
-0.8197642535314803 -0.5271699948828336 -0.2237819588957234
-0.7770935378739905 -0.5494989205092279 -0.3068820127568201
-0.7231986705554045 -0.5615351305936539 -0.4020721079807237
0 0 0
0 0 0
0 0 0
0 0 0
0 0 0
0 0 0
0 0 0
0 0 0
0 0 0
0 0 0
0 0 0
0 0 0
0 0 0
0 0 0
0 0 0
0 0 0
-0.5927687221118744 0.6131060902715876 -0.5222319064914961
-0.6475661443767776 0.643719543462955 -0.4077784177967715
-0.7335370724817541 0.6075867391756949 -0.3045680838051533
-0.7872308805262893 0.5784372379996757 -0.2137238930047568
-0.8275904516754427 0.5450678227067149 -0.1341458644364299
-0.8623611066125809 0.5021450256569175 -0.06468148892795844
-0.8919417940984899 0.4521172952882945 -0.005457768918084212
-0.9175403770938561 0.3950949266370525 0.04494057574315098
-0.9396003437147175 0.3310278083518182 0.08701599961487588
-0.9577521612916636 0.2611289727778467 0.1205091578143875
-0.9713495716586608 0.1879586108324427 0.1454357942615012
-0.9801929206152958 0.1129571461985858 0.1626730509283178
-0.9842449549310854 0.03685038909192808 0.172927492078265
-0.9835017169020774 -0.03973053514591181 0.176481889800865
-0.9780018970502651 -0.1161153383209898 0.1732902696999583
-0.9678297844239505 -0.1916818766703503 0.1629833320865094
-0.9531113318111003 -0.2657442140683904 0.1447715505976349
-0.9341360249432052 -0.3369640958220582 0.1176651394004589
-0.91159738649553 -0.4029288085608385 0.0814774825719464
-0.885860673561439 -0.4625203271638835 0.03641172884506938
-0.8564641147489936 -0.5158920364826958 -0.01801740383514736
-0.8221827804194909 -0.5631001801258234 -0.08326861788176732
-0.7825234239499727 -0.6018434428107263 -0.1595041106534326
-0.730035563058696 -0.637008170523068 -0.2475250842973815
-0.6467361068447349 -0.6789618177209691 -0.3474813062315044
-0.5922341419576891 -0.658840288820701 -0.4638838161935535
0 0 0
0 0 0
0 0 0
0 0 0
0 0 0
0 0 0
0 0 0
0 0 0
0 0 0
0 0 0
0 0 0
0 0 0
0 0 0
-0.5551249067735744 0.6552863655963217 -0.5122851910246805
-0.6221442873940541 0.6773788458805892 -0.3925485763780392
-0.6764862106758175 0.6809003890300975 -0.2806083872305579
-0.7320291559089438 0.6572783392442808 -0.179216348750662
-0.7761912620882794 0.623698996297263 -0.09234005997177083
-0.8121664551794618 0.583147766281917 -0.01800921324314821
-0.8433247033355469 0.5354414553657975 0.04589000566318981
-0.8708674726983077 0.4811253156806025 0.1005399204659633
-0.8953642428822652 0.4203365756073748 0.1471055259823123
-0.916840023703785 0.3531890114267706 0.1861770478394761
-0.9348462165521776 0.2803899297121462 0.2178165253466689
-0.9487185398533441 0.203316899447375 0.2420648064829828
-0.9579056298378441 0.1233034140086569 0.2592548406853237
-0.962045256354162 0.04150258749924294 0.2697155167158934
-0.9609731563002208 -0.04098765865058757 0.2735883855516045
-0.9547353394630126 -0.123064961108149 0.2708051826090022
-0.9435904272281094 -0.2036345540352415 0.2610939946577506
-0.9279992318293261 -0.2815632669766869 0.2440072794274686
-0.9086071714661269 -0.3555675837208382 0.2190997520930781
-0.8861461016027325 -0.4243392073559669 0.1862292235788697
-0.8610959469303031 -0.4872404335097089 0.1452946321564397
-0.8334385693954885 -0.5442597341334537 0.09571568755947384
-0.802589459645107 -0.5954247093602885 0.03632595146435225
-0.7672976042642368 -0.640383687869263 -0.034104527578085
-0.7241827088421083 -0.6795003001388796 -0.1176382009607342
-0.6699589872897365 -0.7101583925247957 -0.2164024326949859
-0.6162626791054463 -0.7160299609926971 -0.3279045673707116
-0.5504978282406295 -0.7039447897907022 -0.4487915708086259
0 0 0
0 0 0
0 0 0
0 0 0
0 0 0
0 0 0
0 0 0
0 0 0
0 0 0
0 0 0
0 0 0
-0.4970856408329654 0.6945301040470906 -0.5201286381752277
-0.5696088394901255 0.722321518866228 -0.3921701076796867
-0.6255000788060706 0.7307709463696521 -0.2733559499180547
-0.6716136497363595 0.7219936183673583 -0.1663139216199762
-0.7136034246567312 0.696871241504517 -0.07169815257129947
-0.7502413795340661 0.6610966020381641 0.009442203578283587
-0.7825130671574977 0.6176366056629371 0.07872942952244955
-0.811761752313936 0.5673875531610189 0.1382541934197994
-0.8386547420040587 0.5106094952824158 0.1895683703615704
-0.863314649835404 0.4472619651437855 0.2337617374920294
-0.8854216654310925 0.377343606873524 0.2713674201832439
-0.9043057415173053 0.301255021226053 0.3024508853432679
-0.91911301607373 0.2199240146245879 0.3269016541335557
-0.9290272743463371 0.1346100170642492 0.3446570278212496
-0.933435586286348 0.04675664592058527 0.3556850043458651
-0.9320310960289359 -0.04207156774792653 0.3599277972348504
-0.9248659525965875 -0.1302596416491988 0.3572889523691271
-0.9123524360885118 -0.2162337005709831 0.3476435230242837
-0.8952096175772745 -0.2985407482870274 0.3308672879106835
-0.8743537094478524 -0.3759215671525309 0.3069015577092514
-0.8507204009277785 -0.4474600850615739 0.2757793895887947
-0.8250367025802099 -0.512784242590787 0.2374168484884058
-0.7976550396826764 -0.5719671091029788 0.1913114313709674
-0.768456196272594 -0.625191836321713 0.1364193615545098
-0.7367316412755772 -0.6724241560468199 0.0712196820276193
-0.7010363607374495 -0.7130969648188389 -0.006382765086661962
-0.6601480114129922 -0.7446878806920805 -0.09820673794505859
-0.6148599810022081 -0.7618660822348301 -0.2037333465638721
-0.5596318782846773 -0.7634486432252517 -0.3224256968125924
-0.4884438622964076 -0.7464052393778222 -0.45199757965536
0 0 0
0 0 0
0 0 0
0 0 0
0 0 0
0 0 0
0 0 0
0 0 0
0 0 0
-0.4403982048924585 0.7109728473349937 -0.5482399396978221
-0.5093088539098075 0.7557037760777153 -0.4117235652120974
-0.5641969094524699 0.7753969839192275 -0.2836218692083639
-0.6087977887836989 0.7751233434815633 -0.1689646553633048
-0.6467641154420507 0.7596158916805792 -0.06840961981168525
-0.6811176715378292 0.7319269809806895 0.01901609926821286
-0.7127796977129256 0.6950185430543675 0.09430974148439951
-0.7424543451534439 0.6506918457508615 0.1592534685214331
-0.770692024358778 0.5995722401629429 0.2157473810171472
-0.797665661258762 0.5416324310419094 0.265261762212824
-0.8231393222305132 0.4765847066516251 0.3087210287357744
-0.8464990714748549 0.4042146088034537 0.3464821380996118
-0.8668175261156444 0.3246840118544486 0.3784278912353758
-0.8829855797092776 0.2387115421989908 0.4041698475226101
-0.8939110233849957 0.147576707479183 0.4232542943437106
-0.8987328341124702 0.05303194493711581 0.4352779637247367
-0.8969983593153339 -0.04284159755935939 0.4399528848685509
-0.8887650158941172 -0.1378340976523567 0.4371481534298063
-0.8745999768887402 -0.2298391124185084 0.4269061522499842
-0.8554767588726723 -0.3170616360017009 0.4094281792996569
-0.8325932162427579 -0.3981739778844257 0.3850272972170055
-0.8071509104090961 -0.4724152973997331 0.3540214606609155
-0.780151546024779 -0.5396042490458971 0.3165293345754229
-0.7522614168389385 -0.5999841095726699 0.2722532442336776
-0.7237371356812805 -0.6539475415683751 0.2203569180047075
-0.6943762691852556 -0.7017242602241542 0.1594511191720775
-0.6635205767700517 -0.7430043222052753 0.08766425375839593
-0.6302420198932327 -0.776392488311232 0.003114555311959497
-0.5932834096556947 -0.7993150430378483 -0.09544767048343905
-0.5493635416988046 -0.8089547587232014 -0.2092651365880902
-0.4947913108969565 -0.8005116680673984 -0.3381754396002495
-0.4265646600175559 -0.7679680712785538 -0.4777736203693172
0 0 0
0 0 0
0 0 0
0 0 0
0 0 0
0 0 0
0 0 0
0 0 0
-0.4667784503641246 0.7612095658394012 -0.4501975956735619
-0.5028741492494418 0.8061972647957769 -0.3117106996117675
-0.5418725704833275 0.81922276679883 -0.1877449752090856
-0.5768591797748175 0.8129536691807181 -0.07962297705519138
-0.6082529767673635 0.7936224103088324 0.01384868619183392
-0.6375964724041158 0.7645229876551022 0.09473826958913482
-0.6658909959852317 0.7275627190839478 0.1650505112532774
-0.6937069904155719 0.6836304763328821 0.2267597479215517
-0.7212848146540599 0.632809266103738 0.2816037089292435
-0.7485204961237313 0.5746798143819632 0.3308476655873439
-0.7749437409573325 0.5086267320335115 0.3751813505652496
-0.799713497181494 0.4341441984849153 0.4147012627755483
-0.8216555675722887 0.3511385462790068 0.4489809011467248
-0.8393767584711082 0.2601771093984813 0.4772363450991398
-0.8514738052372686 0.1626178688120853 0.4985456726697972
-0.8568041078153278 0.06058670744705735 0.5120702800509948
-0.8547466777141585 -0.04321518967434969 0.5172432351592603
-0.8453637599802127 -0.1458584009215317 0.5138924402953698
-0.8293991018146046 -0.2445979627950597 0.5022638415271726
-0.8081131495973006 -0.3372288298208131 0.4829387681534951
-0.7830196266800232 -0.422293763751457 0.4566708238222638
-0.755611840330581 -0.4991267202512141 0.4241736246909963
-0.7271504310120634 -0.5677475819646457 0.385894977749475
-0.6985431724768096 -0.6286408956984706 0.3418304556961799
-0.6702965688245305 -0.6824781664448372 0.2914207647854796
-0.6425020638192027 -0.7298318520123659 0.2335306527551891
-0.6148340805828942 -0.7708787607333895 0.1665082268356143
-0.5865374238395977 -0.8050864058129099 0.08837267457114922
-0.5563157759391127 -0.8309655162882442 -0.003011342071872313
-0.5222499404663782 -0.845668017964995 -0.1100027412113925
-0.4835124707403773 -0.8433517089381629 -0.2344644656864132
-0.4468231238436116 -0.8114458633947188 -0.3767024114314045
0 0 0
0 0 0
0 0 0
0 0 0
0 0 0
0 0 0
0 0 0
-0.3318154613539118 0.8047363230597843 -0.4922376966006448
-0.4207507413906297 0.8368740079216985 -0.3501581192608667
-0.4680382716234208 0.8559066819336495 -0.2199180031672959
-0.5030236764119695 0.8579311076373016 -0.104505480799901
-0.5325074950325135 0.8464141732917756 -0.004337624349461856
-0.559273274948989 0.8248951859004147 0.08222734463760936
-0.5849937416759742 0.7955781044317085 0.1576001330862141
-0.6106688654158541 0.759508002686582 0.224123025739775
-0.6368203441339436 0.716866722164211 0.2838343741527176
-0.663595771203117 0.6672055052129598 0.338345188017886
-0.6907918894098245 0.6096707782704441 0.3887262631321878
-0.7178312531886366 0.5432497789022185 0.4354284897297394
-0.7437326836449361 0.4670570329637386 0.4782461952147764
-0.7671183718872273 0.3806690902979225 0.516353025753545
-0.7863130372313333 0.2844666745951128 0.5484437241183761
-0.7995724840374022 0.1798957450210664 0.5729933365176012
-0.8054290139691597 0.06953067616760832 0.5885996844446501
-0.8030604031278851 -0.04316118467510574 0.5943324836028396
-0.7925337140145717 -0.1543497825612822 0.5899715728520766
-0.7748014484881901 -0.2605038665892881 0.576038584569326
-0.751453458943503 -0.3589292814488571 0.553613104939227
-0.724347813556824 -0.4480242686209667 0.5240176521092547
-0.6952659752206525 -0.5272458527589541 0.4884844260045118
-0.6656814510839248 -0.5968826040799309 0.4478832019952971
-0.6366540996062889 -0.6577425136424202 0.4025498021386366
-0.6088115428708586 -0.7108416083128732 0.352211176935616
-0.5823636461100109 -0.7571314797342104 0.2959805839661421
-0.557106226789604 -0.7972606057635484 0.2323965975865168
-0.5323769471114026 -0.831345282783273 0.1594986112113266
-0.5069338011652773 -0.8587231994453467 0.07491720743907618
-0.4787670611927382 -0.8776158555234892 -0.02392720733061777
-0.4447556135248678 -0.8847963640371337 -0.1390245964740979
-0.3982384981955384 -0.8765509645382054 -0.2703044674475492
-0.3124226143842025 -0.8550571563121698 -0.4138470363077218
0 0 0
0 0 0
0 0 0
0 0 0
0 0 0
-0.2453546329939828 0.791351640997046 -0.5599675743823652
-0.3234598109593045 0.8518190228685576 -0.4120413850251283
-0.3831821559124185 0.8832606501821207 -0.2702259410755516
-0.4236174358927452 0.894225114079144 -0.1446019133960458
-0.4537636035056886 0.8903963208777398 -0.0359580853344057
-0.478917333236103 0.8759781217306815 0.05745013642460717
-0.501953376046141 0.8537645195169388 0.1383074599936365
-0.5245367643904345 0.8252220673040721 0.2094510024736253
-0.5476457936633922 0.7907748509481954 0.2734213228529401
-0.5718017720672722 0.7500809847888753 0.3322969300473266
-0.597166182753932 0.7022391848938947 0.387624402449917
-0.6235544894620202 0.645966988925865 0.4403480985422895
-0.6503953684672122 0.5798046998327028 0.4907263746002534
-0.6766682196776643 0.5023968207395632 0.5382541732202721
-0.700871657091462 0.4128792740191225 0.5816438991095066
-0.7210931343507021 0.3113486217252941 0.6189400030229418
-0.7352517249841966 0.1992985231740219 0.6478309961466929
-0.7415266684065969 0.07981585202610438 0.6661588622897388
-0.7388653399027993 -0.0426852332114402 0.6724997995211636
-0.7273392087926984 -0.1632424222481291 0.6665805179656651
-0.7081372762483514 -0.2773579247764266 0.6493182421211339
-0.6832045329711602 -0.3817819347615171 0.6224741925713958
-0.6547382912374837 -0.4748010948648239 0.5881170719360084
-0.6247632276083545 -0.5560840567896413 0.5481253790993135
-0.5948861496567986 -0.6262903720190549 0.5038559703553606
-0.566217642664809 -0.686637864932319 0.4559890608077041
-0.5393924658000464 -0.73853656245706 0.404499089927597
-0.5146185811650812 -0.7833173281196698 0.3486856455134048
-0.4917031391966072 -0.8220302800749962 0.2872181079667926
-0.4700199773892506 -0.8552670136585052 0.21817322521948
-0.4483930791758892 -0.882950294233231 0.1390770450527873
-0.4248562082505828 -0.9040378215618017 0.04704061539487692
-0.3961674871029147 -0.9161622215591106 -0.06081205431850101
-0.3567669346659789 -0.9153842819470991 -0.1865180170740467
-0.2978394188470317 -0.8959109107727874 -0.3295987265435594
-0.2205801350104714 -0.8486065372792891 -0.4808444123888893
0 0 0
0 0 0
0 0 0
0 0 0
-0.2680007983370544 0.8258803013212026 -0.49608194885553
-0.3052934158571638 0.8883219600804957 -0.3430452236557308
-0.3433053549295878 0.9167855704480043 -0.2040726613120832
-0.3736240480075844 0.9238098839822636 -0.08354860266397282
-0.3978145405138415 0.9172637313095147 0.01925716957153808
-0.4185498832119781 0.9018437750414956 0.1072091445826471
-0.4378642653013327 0.8800800337642711 0.1836682317157831
-0.4571173539469375 0.8530200984346171 0.2517944327961711
-0.4771801953946938 0.8206887114337493 0.3142755161451387
-0.4985664705978269 0.7823792258415465 0.3732482034346689
-0.5214885408727495 0.736832278542585 0.430264912624946
-0.5458470913625998 0.6823710270787259 0.486231153109829
-0.5711658076819379 0.6170686537867275 0.5412909537844454
-0.596494250024496 0.5390243527125076 0.5946825681576478
-0.6203265765450267 0.4468122586849581 0.6446345816978581
-0.6406227581790271 0.3401071734144054 0.6884254442531587
-0.6550387432960995 0.2203592927069211 0.7227489376669962
-0.6614272225235978 0.09120326771500664 0.7444434117263872
-0.658501689863174 -0.04180813462405369 0.7514170641704914
-0.646336171735832 -0.1723142064066099 0.7433420258375875
-0.6263548467728132 -0.2946643862906249 0.7217011191457129
-0.6008280206263629 -0.4050193330584963 0.689177066855142
-0.5722189361753526 -0.501639386830343 0.648786108561847
-0.5426894341860817 -0.5845321090284455 0.6031669682082627
-0.5138638217798981 -0.6548414340535306 0.5541901017813942
-0.4867956799399303 -0.7142668551097932 0.5028447331765401
-0.4620363032994808 -0.7646362458783036 0.449281499644136
-0.4397211025451562 -0.8076337641965345 0.3929033658626608
-0.4196226475022832 -0.8446308397588557 0.3324388338197335
-0.4011452718973934 -0.8765499529281812 0.2659749064403801
-0.3832461102234128 -0.9036897022927226 0.1909642400260141
-0.3642788899410153 -0.9254338315570295 0.1042742238188166
-0.3417939080414907 -0.9397718348327853 0.002413064596014979
-0.3125991602100657 -0.9425460365219669 -0.1178504733664331
-0.2745991350253958 -0.9262877604582437 -0.2580432131805737
-0.2359271772493847 -0.8784116174760073 -0.4156096694235123
0 0 0
0 0 0
0 0 0
-0.1422631757356264 0.8009400533560251 -0.5815979880980172
-0.2245834675583152 0.8747248916435604 -0.4294399027089166
-0.2663437663975284 0.9218733585821963 -0.2814436157342345
-0.2957841074160459 0.9436407421627315 -0.1485055942739589
-0.3184435143580134 0.9473319287527702 -0.03399919012084811
-0.3368737329572049 0.9394169161439887 0.06333992189760902
-0.3529806844926359 0.9240520048575881 0.1467396629878287
-0.3681932291148468 0.9033946350187209 0.2197996347889897
-0.3835394769516699 0.8781848640598603 0.2858125507317746
-0.399739503496834 0.848186087886874 0.3475466726344305
-0.4172715246065105 0.8124472529076855 0.4072025736599814
-0.4363924067953803 0.7694412991851628 0.4663922752357539
-0.4571088371179036 0.7171539451510438 0.5260624772619794
-0.4790969261524751 0.6532077789456963 0.5863324422851592
-0.5015797913350516 0.57512231494067 0.6462600372772327
-0.5232011244153499 0.4808145953111289 0.7036177288459324
-0.5419819831779943 0.3693950456658199 0.7548528533085068
-0.5555007676523814 0.2421399242597893 0.7954791978531416
-0.561417092314331 0.1032146918620066 0.8210709931797325
-0.5582696060996326 -0.04052815168561986 0.8286691232490251
-0.5461292824133681 -0.181079013577889 0.8178955909725383
-0.5265858239487691 -0.3114871305827637 0.7910013511350732
-0.5020970293261903 -0.4273500649433398 0.7518447280753768
-0.475211572969007 -0.5270297677091199 0.7045662388056871
-0.4480487611879447 -0.6110077688517952 0.6526268566345541
-0.4221039298237656 -0.6810009468012854 0.5983861486390587
-0.3982725034218531 -0.7392241377568057 0.5430715304412452
-0.3769630835878005 -0.7879102955041084 0.4869252507835315
-0.3582112100243065 -0.8290491446240185 0.4293742479598713
-0.3417520882065095 -0.8642540420526487 0.3691482913439368
-0.3270354916205969 -0.8946692706311712 0.3043266064752835
-0.3131824838815795 -0.920834926524746 0.2323354684113672
-0.298886399163672 -0.9424322489467314 0.1499612501287569
-0.2822881966762281 -0.9578355083178245 0.05352114556712101
-0.2608997377784315 -0.9634663558137152 -0.06053022420398495
-0.2315663792159441 -0.9532655037354514 -0.1940667189520471
-0.1887277558099177 -0.9196560776841547 -0.3444046064813119
-0.1069147968803776 -0.8595099943879148 -0.4998117603211368
0 0 0
0 0 0
-0.1692501156806676 0.8252657533486357 -0.5387864462771768
-0.198253690599985 0.9041261243142711 -0.3784857005171264
-0.2236977586099595 0.9467555318619202 -0.2315454073863966
-0.2435650945663992 0.9643553165478189 -0.1034159956429195
-0.2592062035978846 0.9658057342105241 0.005606048736996628
-0.2720567611335853 0.9572714529257915 0.09806367388001733
-0.2833237447228983 0.9424353845501453 0.1776040585797883
-0.2939604614431711 0.9230999742931824 0.2479388726441327
-0.3046992030326714 0.899762538371892 0.3123872119883011
-0.3160965980752483 0.8720090125169553 0.3737421875764882
-0.3285632944922403 0.8387293387719411 0.4342571332696645
-0.3423680643304152 0.7982093090804508 0.4956268832740544
-0.3576055569496563 0.7481702394557601 0.5588913655008779
-0.3741208373166726 0.6858438272562047 0.6242209894741064
-0.3913876802678358 0.6082003734345697 0.690585251427086
-0.4083624722151724 0.5124783785461893 0.7553846720770686
-0.4233862968404781 0.3971344530528149 0.814265478726777
-0.4342799586717252 0.2631391415141654 0.8614863375000628
-0.4388046803669962 0.1151035832236832 0.8911799019373621
-0.4354914121559295 -0.0387660654196175 0.8993577831487953
-0.4243965963471478 -0.1886714244093191 0.885601842037557
-0.4070893994460297 -0.3263305606516784 0.8531040886336386
-0.3859186883054569 -0.4468807743772099 0.8070714587374652
-0.3632115474517352 -0.5489222270973797 0.7528358123762234
-0.3408015852974301 -0.6334974301341921 0.6946475980467594
-0.3199011991432464 -0.7029165569475895 0.635272804986691
-0.3011725852683551 -0.7598801775459815 0.576087831546078
-0.2848609553030377 -0.80697125996957 0.517350579130791
-0.270913318494578 -0.8464176521274021 0.4584573393778212
-0.2590510598002348 -0.8800013958685158 0.3981081406927498
-0.2487927972174023 -0.9090082722367482 0.3343741991510437
-0.2394283158196885 -0.9341365933149702 0.2646939867349629
-0.2299545704007322 -0.9552887551643841 0.1858609421268912
-0.2189889129743078 -0.9711779285418631 0.09411316118092111
-0.2047133602335576 -0.978714938147219 -0.0144744598990896
-0.1849619889581394 -0.9722820506096115 -0.1430268391002796
-0.1578456801858049 -0.9432433488078041 -0.2921929605184195
-0.1258866417337026 -0.8799588221018874 -0.4580666161575941
0 0 0
0 0 0
-0.1491298359325543 0.8573005194287624 -0.492743453961494
-0.160957194099118 0.9291912888525444 -0.3327105805174904
-0.1749773933336014 0.9661096884600636 -0.1897761357119918
-0.1870103265670308 0.9800683073417222 -0.06703171414803083
-0.1965683632568368 0.9798011134658107 0.03675128049041848
-0.2041793552780923 0.9709437380754318 0.1248160581428907
-0.2105218276294105 0.9567009954876476 0.2010068787990007
-0.2161995742364601 0.9385528313609428 0.2690284870498482
-0.2217080387301972 0.9167993981348718 0.3321511841645994
-0.227445584142609 0.8909018052789967 0.3931443495774182
-0.2337288853558664 0.8596489933519647 0.4542845103888725
-0.2407946016475676 0.8212069664915158 0.5173365229743506
-0.2487811829945516 0.773114422412201 0.5834398108169165
-0.2576794493548775 0.7123110661800499 0.6528508607466234
-0.2672458845788479 0.6353272417577726 0.7245266958892053
-0.276882748774758 0.5388174947827288 0.7956202930713856
-0.285527768355624 0.4206217933979255 0.8611336716309317
-0.2916622853091551 0.2813451512488976 0.9142089570754464
-0.2936076085145097 0.1258992958481693 0.9475990394292962
-0.2901894288819715 -0.03630718212189679 0.9562802329294076
-0.2814317099162257 -0.1938096230387489 0.939805311046499
-0.2685572782500848 -0.3371696937400074 0.9023267622774886
-0.2533537582097077 -0.4612311487517765 0.8503397559929401
-0.2375304228587689 -0.5649052943336654 0.7902286420083295
-0.222376451649197 -0.6497679040596932 0.7268771454694287
-0.2086952874621549 -0.7186340961330512 0.6633334854099561
-0.1968818810991591 -0.7745862842178766 0.601043769784197
-0.1870354277583834 -0.8204614222264524 0.5402414306598347
-0.1790510453754498 -0.8586467154766778 0.4802775667789107
-0.172673796601808 -0.8910270746884813 0.4198267644388626
-0.1675118136513635 -0.9189731546770233 0.3569707736918943
-0.1630161265106222 -0.9432868629736466 0.289198265276279
-0.1584313169845211 -0.9640391579151197 0.2133729594040829
-0.1527400351753574 -0.9802316961201769 0.1257628863218036
-0.1446585348876212 -0.9892309185674631 0.02227325827846484
-0.1328810340532798 -0.9859826273619167 -0.1009003931083619
-0.1171573957695559 -0.9621676075591914 -0.2459830066901307
-0.1018185856491112 -0.9056728392935421 -0.4115697799673682
0 0 0
0 0 0
-0.09798152925231421 0.8877116270689591 -0.4498529616351976
-0.1086255786347877 0.9498569465849441 -0.2932102738489626
-0.1187647380934312 0.9806113058231264 -0.1558730376859993
-0.1262045461168803 0.9912496078051281 -0.03868627102230766
-0.1311066835150751 0.9895333215964145 0.0602896590473385
-0.1340437058048577 0.9803828581009328 0.144505143423845
-0.1355562145994079 0.9665361575703209 0.217789735278498
-0.1360782160398103 0.949192440413001 0.2837541720966118
-0.1359459676676734 0.9284927894272446 0.345571749216445
-0.1354221966108728 0.9038070456957605 0.4059478449453657
-0.134715574100493 0.8738611183834745 0.4671385874367019
-0.1339953895167902 0.8367538224819111 0.5309315173825655
-0.1333967240433273 0.7899228087051788 0.5985209021427985
-0.1330147862840066 0.7301410977971273 0.6702246220017772
-0.1328803737111027 0.6536779689010477 0.7450153818920773
-0.1329131366649069 0.5568258266214262 0.8199262752889801
-0.1328577529850512 0.4370188296100165 0.8895860610632644
-0.1322421173626889 0.2945867885972998 0.9464304762524089
-0.1304449926219206 0.1345854651600307 0.9822784006927591
-0.126963739703516 -0.03280319479675559 0.9913647962337695
-0.12177112445351 -0.1949878645064159 0.9732171011365114
-0.1153536693350758 -0.3418071635722443 0.9326636016815656
-0.1084576203218073 -0.4679810812026669 0.8770579526066182
-0.1018093534347549 -0.5726653047618185 0.813442870935169
-0.09595241249411497 -0.6577816436155247 0.747071913445431
-0.09120784097358198 -0.7264463132642917 0.6811438054402725
-0.087704931339371 -0.7819532863629862 0.617136048991534
-0.08543063216056174 -0.8272715846946694 0.5552687027425699
-0.08426942653135389 -0.8648652068463851 0.4948806297872605
-0.08402075768053947 -0.8966681368523992 0.4346570655498819
-0.08439389446979451 -0.9240956736011373 0.3727262488849974
-0.08497776207631458 -0.948017953529746 0.3066606263245625
-0.08519059986772823 -0.968632123600798 0.2334402939142772
-0.0842132260234475 -0.9851762662078408 0.1494518553364282
-0.08094284507097479 -0.9954306429735698 0.0506565974088382
-0.07408257740843986 -0.995006573533366 -0.06688565130065095
-0.06278083351479256 -0.9765404569273242 -0.2059788895187083
-0.04931726923174023 -0.9288316080744554 -0.3672051889575428
0 0 0
0.07534190907657126 0.8233036230189622 -0.5625786532215273
-0.01402366180445339 0.9109887920721613 -0.41219262199668
-0.0447773425822787 0.963645233779221 -0.2634062508860775
-0.05740714898741679 0.9896742541432305 -0.1313365521520049
-0.06266435286428812 0.9978609338214238 -0.01862083867970231
-0.06397821458861523 0.9950099750687277 0.07656329128101923
-0.06272357274840384 0.9854943778965881 0.1576914219477124
-0.05958047454879739 0.9717079520298003 0.2285472008461063
-0.0549359540688642 0.9546416453603662 0.2926454679201365
-0.04902815186539405 0.9343168686338942 0.3530555612234674