# OOMMF: rectangular mesh v1.0
# Segment count: 1
# Begin: Segment
# Begin: Header
# Title: 
# Desc: time = 6e-10
# Desc: stepsize = 1.391909866224382e-13
# Desc: step = 3838
# meshunit: m
# valueunit: (none)
# valuemultiplier: 384000.0000000001
# xmin: 0
# ymin: 0
# zmin: 0
# xmax: 9.357999999999999e-08
# ymax: 9.357999999999999e-08
# zmax: 2.3395e-08
# ValueRangeMaxMag: 1
# ValueRangeMinMag: 0
# meshtype: rectangular
# xbase: 1.16975e-09
# ybase: 1.16975e-09
# zbase: 1.16975e-09
# xstepsize: 2.3395e-09
# ystepsize: 2.3395e-09
# zstepsize: 2.3395e-09
# xnodes: 40
# ynodes: 40
# znodes: 10
# End: Header
# Begin: Data Text
0 0 0
0 0 0
0 0 0
0 0 0
0 0 0
0 0 0
0 0 0
0 0 0
0 0 0
0 0 0
0 0 0
0 0 0
0 0 0
0 0 0
0 0 0
0 0 0
-0.8372532009921113 0.02036483604411363 -0.5464360446395889
-0.8467547162255494 0.03879849480263223 -0.5305667981987178
-0.8568189639779216 0.01952115410130346 -0.5152476952984395
-0.8618395913320482 -0.01540585053030728 -0.5069469188998442
-0.8600689788343525 -0.05479584637683207 -0.5072265439295147
-0.8516151356628622 -0.09000509826813895 -0.5163823612359998
-0.8385136902842534 -0.1097371818141811 -0.5337157877872489
-0.8269715558092996 -0.09126863062383009 -0.5547865201556331
0 0 0
0 0 0
0 0 0
0 0 0
0 0 0
0 0 0
0 0 0
0 0 0
0 0 0
0 0 0
0 0 0
0 0 0
0 0 0
0 0 0
0 0 0
0 0 0
0 0 0
0 0 0
0 0 0
0 0 0
0 0 0
0 0 0
0 0 0
0 0 0
0 0 0
0 0 0
0 0 0
0 0 0
-0.7837354391602724 0.2320000695636347 -0.5761377692242743
-0.811442890267153 0.2613784599933875 -0.5227252973468701
-0.8481075436822391 0.2438542687570316 -0.470370800494941
-0.8843284956530317 0.1954348800920696 -0.423990942614867
-0.9158796482029091 0.1134206769444187 -0.3850976759851772
-0.9286971033294766 0.07254517637082575 -0.3636741503774557
-0.9365420326721076 0.03342318381115989 -0.3489583239046197
-0.9398969660444976 -0.009562036091862951 -0.341324274973413
-0.9382572500752333 -0.05431660959879783 -0.3416475356313171
-0.9316638571685807 -0.09745398310802726 -0.3500073976677381
-0.9206521012378777 -0.1368365825939097 -0.365616545235989
-0.9044641004263643 -0.1778858867608004 -0.3876871191195947
-0.8677842277878505 -0.2593149977953588 -0.4239177584402855
-0.8269161169437145 -0.3085429312666931 -0.4701180650688557
-0.7863156052624888 -0.3272797569829641 -0.5240188256063489
-0.7559950469764014 -0.2989291658189202 -0.5823339615460806
0 0 0
0 0 0
0 0 0
0 0 0
0 0 0
0 0 0
0 0 0
0 0 0
0 0 0
0 0 0
0 0 0
0 0 0
0 0 0
0 0 0
0 0 0
0 0 0
0 0 0
0 0 0
0 0 0
0 0 0
0 0 0
0 0 0
-0.7574076402401381 0.3266384216023762 -0.5653680288440208
-0.7949918043507022 0.3547152515046086 -0.4921027548848276
-0.8499384354460344 0.3171320836642174 -0.420751586405017
-0.8837146898159987 0.2955558939181073 -0.3628981407691157
-0.913520124367454 0.2619816183099851 -0.3112018863107225
-0.9399047365332606 0.2128576123727221 -0.2669657713964941
-0.9606464883645649 0.1514955844113315 -0.2328248532624864
-0.9725453936979127 0.09781610859172155 -0.2111574438587091
-0.9791675856304544 0.04701406715831132 -0.1975361150267457
-0.9816115203819565 -0.003929427067202687 -0.1908491096556289
-0.9800121575472189 -0.05522313119955326 -0.1911192738583975
-0.9743671277026432 -0.1061574304326616 -0.1983413734358891
-0.9644897687611714 -0.1569400945880494 -0.212436561508878
-0.9490830547233658 -0.2105677734257917 -0.23431297025873
-0.9242543373922024 -0.2718412309483041 -0.2680601890773994
-0.8938969275080961 -0.3213013916510427 -0.3125919044292225
-0.8604104592061101 -0.3554812789595556 -0.3651395650953325
-0.8231373065783338 -0.3777823477849966 -0.4239404111676793
-0.7639396861190564 -0.4155060084651034 -0.4937113659839264
-0.723301223789326 -0.3887522747340491 -0.5707074632015645
0 0 0
0 0 0
0 0 0
0 0 0
0 0 0
0 0 0
0 0 0
0 0 0
0 0 0
0 0 0
0 0 0
0 0 0
0 0 0
0 0 0
0 0 0
0 0 0
0 0 0
0 0 0
0 0 0
-0.7614798063031255 0.4076137916418664 -0.5039836321309402
-0.8125083694226006 0.4069168379673826 -0.4174312357704597
-0.8521657648413202 0.3965668675351633 -0.3413916062321326
-0.8900180890515413 0.3647640897969617 -0.2735232347637687
-0.9193457427283539 0.3280487671771777 -0.2172266366741996
-0.9437051371276681 0.28406587941839 -0.1694909741228276
-0.9640637222718892 0.2316485000060464 -0.1300773302471184
-0.9798200315721479 0.1730189686225431 -0.1000856744331862
-0.990192543773639 0.114605486445399 -0.07990186938803562
-0.9960849474321605 0.05713764719056218 -0.06745418276575973
-0.9981050721617279 -8.040892749562727e-06 -0.06153263248370734
-0.9964577562220368 -0.05708224281099843 -0.06175400894362532
-0.9911362543460972 -0.114065382438433 -0.06810296505998545
-0.9819042881527241 -0.1712175636132352 -0.08092289427374114
-0.9680898603471294 -0.2291842227803944 -0.1013736372121535
-0.9487633224711544 -0.2873069816884891 -0.1315403215996743
-0.9249311692383312 -0.3393314970471353 -0.171337290988164
-0.8972288207804946 -0.3830948381568786 -0.2195877686447886
-0.8645262187202908 -0.4198441374280795 -0.2762703701312667
-0.8229645076040409 -0.4520147121347127 -0.3441106206408204
-0.779716064093061 -0.4633119396760889 -0.4211708750006406
-0.7251635006893297 -0.4641402973152898 -0.5086370824822647
0 0 0
0 0 0
0 0 0
0 0 0
0 0 0
0 0 0
0 0 0
0 0 0
0 0 0
0 0 0
0 0 0
0 0 0
0 0 0
0 0 0
0 0 0
0 0 0
-0.6570698941645872 0.4979400753501356 -0.5659636344703066
-0.7084260494396292 0.5331492217431172 -0.4624764208368551
-0.7883149808872851 0.497846824825097 -0.3615356551161281
-0.837751810119635 0.4706566409325642 -0.2768650049886219
-0.8743026062260928 0.4401333662730817 -0.2046401051587543
-0.9049473965039635 0.4008625236567818 -0.1427565994559049
-0.9301375013033428 0.3556796285416376 -0.09130296002680238
-0.9511235757505629 0.3049458654711497 -0.04870280057156687
-0.9684605804922454 0.2487580100198818 -0.01426732222845873
-0.9820108256392048 0.1884476994681083 0.01192488543274685
-0.9914942714243299 0.1266220603054541 0.03009922883959664
-0.997058467329404 0.06451158487536794 0.04138439492861628
-0.9989053902018207 0.002419804929369388 0.04671365934982512
-0.9971395199066011 -0.05956823892438641 0.04652314211099397
-0.9917676709754988 -0.1213694457184746 0.04082088257037502
-0.9826967655908707 -0.1829077025707773 0.0291862850928411
-0.9697397617103276 -0.2439066238946073 0.010693613904153
-0.9527945575126784 -0.3032039318983803 -0.01580844254127914
-0.9322302624663932 -0.358309511012558 -0.05060664047119368
-0.908171289749111 -0.4080065817966238 -0.09357103016463199
-0.8799319629838692 -0.4523425589820776 -0.1452788692580566
-0.8460684062445715 -0.4911341525306632 -0.2072570774973856
-0.8060264203795868 -0.5216817361293027 -0.2795882255016929
-0.7524278343851889 -0.5491455201419351 -0.3637190560727578
-0.6671763233562463 -0.5845380190615083 -0.4617261719076454
-0.6116709023127637 -0.551068977182408 -0.5676105087566859
0 0 0
0 0 0
0 0 0
0 0 0
0 0 0
0 0 0
0 0 0
0 0 0
0 0 0
0 0 0
0 0 0
0 0 0
0 0 0
-0.6358458125657209 0.5443942551444102 -0.5471151593662893
-0.6989428742600594 0.5677164061836234 -0.4349447558840512
-0.7502590975727557 0.5726516522702184 -0.3304260456766422
-0.8019638792087507 0.5493450361528882 -0.2346784346688753
-0.8425233951279066 0.5160908489002284 -0.1542872786187719
-0.874830548128318 0.4764898777086123 -0.08734362313722513
-0.9019100726449135 0.4307738598142071 -0.0314976596339508
-0.9248997637040716 0.3799304464739106 0.01460420974537611
-0.944448233753682 0.3244659505072777 0.05233909361995327
-0.9607738309012765 0.2647599587371099 0.08255791969767932
-0.9737405426931841 0.20167100527995 0.1056321974823817
-0.9830965619315427 0.1365525217837924 0.1219613000622175
-0.9887100526261055 0.07045232506421101 0.1322456113794704
-0.9905453747376534 0.003987987961789473 0.1371275192580182
-0.9886067543973224 -0.06244852582895134 0.1369557110228795
-0.9829183357634036 -0.1285232226304195 0.1317320252056871
-0.973526403587362 -0.1938514157953599 0.1211113954687608
-0.9605247723318439 -0.2578404047672336 0.1044532785810392
-0.9441129562454821 -0.3195011183817295 0.08105406345298136
-0.9245993891767793 -0.377577005673259 0.05051311038474879
-0.9021080398876283 -0.4313293529245871 0.01249294503938891
-0.8763277706058418 -0.4805275922190456 -0.03380638373385843
-0.8464535487197835 -0.5248464312508588 -0.08973635530219574
-0.8111441501147478 -0.5634768776558138 -0.1566492134735359
-0.7670527730205035 -0.5963089519158586 -0.2367396824923221
-0.7110535109637888 -0.6199008563686511 -0.3318521249283802
-0.6553321675224048 -0.616227657719182 -0.4368102838445048
-0.5880625706200697 -0.5938237862829517 -0.5491408962008694
0 0 0
0 0 0
0 0 0
0 0 0
0 0 0
0 0 0
0 0 0
0 0 0
0 0 0
0 0 0
0 0 0
-0.5933474871922025 0.5899906716917273 -0.5475853967733644
-0.6618806821895047 0.6173502078608296 -0.4251972288227497
-0.7151670303144899 0.6251224344409984 -0.3126628547008944
-0.7591395734470453 0.6153953599861473 -0.2121218021188717
-0.7986907324934156 0.5888212694826158 -0.1240267166138445
-0.8326177721375748 0.5515769499067199 -0.05010502821334935
-0.8617289760901434 0.5072489334048239 0.01103137916585579
-0.8871692850021753 0.4573278790896464 0.06149691663892009
-0.9095440689041469 0.4026449401230824 0.102988537782451
-0.9290684208357874 0.3436655545534886 0.1368424496241514
-0.9456675163214354 0.2807813918306775 0.1639352267698272
-0.9590619825451933 0.2146155392802073 0.1847708958032848
-0.9688989724519274 0.1460650497882197 0.1997492989023081
-0.9748850976453186 0.07603220387428765 0.2093278537679484
-0.9768370992260765 0.005280533145312487 0.2139191378658875
-0.9746851037135466 -0.06554279244049159 0.2137594230858958
-0.9684690939065815 -0.1358314296770268 0.2088478797107099
-0.9583407883115171 -0.2049452346591417 0.1989481948874346
-0.944568576775353 -0.2721439784846684 0.1836514599536845
-0.9275273783679235 -0.3365771612073517 0.1625077749879262
-0.9076275767919627 -0.3974317678427911 0.135130202975142
-0.8851543939691449 -0.4541949510242637 0.1010378409368581
-0.8601269629584619 -0.5066119272729775 0.05937981758654541
-0.8322137037892628 -0.5543846146949831 0.008834603265079746
-0.8006282897689071 -0.5968753593312025 -0.05228907194588391
-0.7639705682213533 -0.6328116009008856 -0.1260890505032073
-0.7211832338504793 -0.6588592462521041 -0.2140075625791596
-0.6733965593314112 -0.6690232975770001 -0.3145550844920701
-0.6155949828545101 -0.6623973468891271 -0.4269339198501335
-0.5424625262737014 -0.636072002181384 -0.548768453566455
0 0 0
0 0 0
0 0 0
0 0 0
0 0 0
0 0 0
0 0 0
0 0 0
0 0 0
-0.5503670177331876 0.6136039944946938 -0.5662033943130614
-0.6154892904906152 0.6570907127460385 -0.4352065354682321
-0.6682377190231059 0.6749862497579445 -0.3128129049647757
-0.7116358634912803 0.6722387027494261 -0.2041311449014775
-0.7487261035716372 0.6536868065548793 -0.1100126391216805
-0.7820114943430084 0.6225568583463509 -0.02968132142166074
-0.8121406726797048 0.5822527165798835 0.03754066880999528
-0.8395716770384405 0.5351860963495656 0.09324827820916251
-0.86465608647958 0.4826598765964988 0.1393172481700275
-0.8874869015276855 0.4253430274631582 0.1773423485952024
-0.9079135910195472 0.363609050789153 0.2085218679807975
-0.9255958874763225 0.2977967484819583 0.2336436382195999
-0.9400691976448938 0.2284126723894435 0.2531749488618449
-0.9508345434520135 0.1561905382219611 0.2674288442713962
-0.9574570463957482 0.08199720610370451 0.2766811567460207
-0.9596359997583174 0.006731446748543567 0.2811644280354928
-0.9572407325642869 -0.06871691991577079 0.2810127485312297
-0.9503247721113615 -0.1434665904907362 0.2762248448718025
-0.9391261364476696 -0.2166358016661924 0.2666665132282612
-0.9240511366952809 -0.2873493098554732 0.2521108305839749
-0.9056296982128739 -0.3547881972934046 0.2322933162537284
-0.8844296941060706 -0.4182940249902206 0.2069159849816405
-0.8609425437859706 -0.477459661551114 0.175528367766686
-0.8354850791581981 -0.5320692367620585 0.1373572342305237
-0.8081292582199863 -0.5818999028287983 0.09121186927505165
-0.7786397278061663 -0.6264663840708321 0.03549709722153721
-0.7464489757567814 -0.6646885424111715 -0.03167125161662505
-0.7108216044651749 -0.6944110013018688 -0.1119196492868424
-0.6708000259066896 -0.712463382697718 -0.205969059711668
-0.6235397859713628 -0.7157278223597409 -0.3145342900400042
-0.5659746937416439 -0.6992033352882143 -0.4367921038273111
-0.4960353369361618 -0.6570079665458805 -0.5677054486314842
0 0 0
0 0 0
0 0 0
0 0 0
0 0 0
0 0 0
0 0 0
0 0 0
-0.5836054589491984 0.6689610933171446 -0.4603213268062055
-0.6189255502308837 0.7126435922348262 -0.330257889713539
-0.6578362585049278 0.7226182226818868 -0.212307233141757
-0.693350364281015 0.7121323052194684 -0.1101492270249273
-0.7255180022167206 0.6878079946619372 -0.02331932543154415
-0.7554569995325512 0.6532954720743603 0.04989737492506865
-0.7837953984648183 0.6109761676621465 0.1112335196523636
-0.810771627818939 0.5623606768458833 0.1624802654517375
-0.8363630564715324 0.5082737004739454 0.2053160567907875
-0.8603268273024652 0.4491175774194597 0.2411040270848859
-0.8822343311201055 0.3851178905449592 0.2708261349561009
-0.9015130917348291 0.3165291770804089 0.2950990096349161
-0.9175021976692863 0.2437902810052746 0.314254699502487
-0.9295301163041001 0.1675926574903368 0.3284607496170773
-0.9370076204519291 0.08885331525130245 0.3378191936285825
-0.9395130766178411 0.008644045822510056 0.3424039417645421
-0.9368531387772001 -0.0718788097955142 0.3422566771674259
-0.9290932449107927 -0.1515345726590567 0.3373766671691602
-0.9165563499713918 -0.2291766010803625 0.3277232717467148
-0.8997879287807092 -0.3037581122175422 0.3132294566009967
-0.8794864320405589 -0.3744088163929749 0.2938054697649082
-0.8564061079318757 -0.440507649348642 0.2692983274406094
-0.8312533944877952 -0.501707558056205 0.2393894741666743
-0.8046021426908583 -0.5578660552347414 0.2034720039565827
-0.7768316999018408 -0.608892855787342 0.1605677433320629
-0.7480745782507398 -0.6545499928647716 0.1093102566811763
-0.7181676110548025 -0.6942120349289622 0.04800971767909727
-0.6865994436085217 -0.7266008936254463 -0.02514647925994507
-0.6523798732571616 -0.7495827003198503 -0.1119208485947566
-0.6139739909887193 -0.7597378230544437 -0.2140896508705597
-0.571102839103068 -0.7505608270642777 -0.3324153908064452
-0.5314854685018066 -0.7083923128396947 -0.464438938807937
0 0 0
0 0 0
0 0 0
0 0 0
0 0 0
0 0 0
0 0 0
-0.4630927562150501 0.7268224101887503 -0.5072221241118761
-0.5480242165591822 0.753963074427655 -0.3622280227485067
-0.5951276528927651 0.7684532208943151 -0.2351653121944236
-0.6315810118954894 0.765256107353868 -0.1244528648552306
-0.6634225597917162 0.7476439049854147 -0.02998497119502269
-0.6929265920498661 0.7192899428063937 0.04974651955396265
-0.7212941860418149 0.6826909675621231 0.1169091099588364
-0.7490760659735846 0.6393377897133642 0.1735863993231248
-0.7763754983227508 0.5900305472259633 0.2215965679886087
-0.8029852531633752 0.535113158009999 0.262428259390477
-0.8284652275734701 0.4746792260240061 0.2971952204913265
-0.852189048333293 0.4087596409812764 0.3266334058323698
-0.873385441540758 0.3374901225724591 0.3511385590770129
-0.8911935248399783 0.2612472911151001 0.3708422227421203
-0.9047442856847911 0.1807282208323809 0.3857137380434852
-0.9132655277711215 0.09695763288920532 0.3956580508588904
-0.9161915035509197 0.01123332789735705 0.4005832512293226
-0.9132527521985773 -0.07496908169011329 0.400436071542343
-0.9045257716883619 -0.1601152282903332 0.3952167026089702
-0.8904304766701331 -0.2427408479752965 0.3849810994597433
-0.8716741810500291 -0.3215751168880092 0.3698291041673485
-0.8491529109859095 -0.3956405948158687 0.3498683373755059
-0.8238318844900978 -0.4643089553107703 0.3251433839334804
-0.7966322913622971 -0.5272915163447143 0.295534514312199
-0.7683438885880546 -0.5845575366068216 0.2606533239104211
-0.7395635599099764 -0.6361988008091786 0.2197653901374045
-0.710644178965675 -0.6822654119400723 0.1717520263998197
-0.6816331386991097 -0.7225823221126614 0.1151132138265366
-0.6521764801800176 -0.7565450949720185 0.04801414347650258
-0.621365889910952 -0.7828811087512317 -0.03164807127791143
-0.5875413270012 -0.7993141275101306 -0.1260639307192467
-0.547954267216026 -0.8023047016484656 -0.2367557533672917
-0.4963171911028748 -0.7883340286606128 -0.3635913985114058
-0.4058801585961731 -0.7611507760987181 -0.5058762624419769
0 0 0
0 0 0
0 0 0
0 0 0
0 0 0
-0.3875578611434299 0.7249561322719807 -0.5694185723588403
-0.4620678883075279 0.7812104054358793 -0.4197660884751537
-0.5203745815248743 0.8073794868417028 -0.2781162690855034
-0.5621111189522697 0.8123825454621018 -0.1551312018220153
-0.5954608900249216 0.8017807564967692 -0.05073408087465447
-0.6250160401495042 0.7797302117056379 0.037091056999144
-0.6530783456452799 0.7491181162860624 0.1109536944010664
-0.6807881453457554 0.7116452213544745 0.1734606009444999
-0.7086153789314162 0.6681325416753588 0.2268549128767324
-0.7365879704599717 0.618833468210539 0.2729162882573609
-0.7644137160605918 0.5636703562027779 0.3129654936836808
-0.7915465131495251 0.5024204088974192 0.3478905722266386
-0.8172249947337843 0.434880333843411 0.3781830287289595
-0.8405086958532156 0.3610225260384843 0.4039899353794816
-0.8603344113539538 0.2811364932007174 0.4251905135713261
-0.875608671122761 0.1959323445535184 0.4414974194855427
-0.8853373742872743 0.1065789721040103 0.452568952089476
-0.888773621446403 0.01466035479085449 0.4581119118932091
-0.8855491056482263 -0.07795002443741042 0.4579591413825394
-0.8757509377420489 -0.169277827631406 0.4521120570348829
-0.8599181275804738 -0.2574620694443772 0.4407426648917821
-0.8389568840020455 -0.3409473896275622 0.4241535385821143
-0.8139999350627291 -0.4186134706147475 0.4026994759591179
-0.7862493913957576 -0.4898193505531193 0.3766814282036223
-0.7568398345986758 -0.554362399800893 0.3462308398332581
-0.7267409122023754 -0.6123711125154534 0.3112061488593128
-0.6966963815354817 -0.6641616260863503 0.2711152640293436
-0.6671806090122649 -0.7100819926980237 0.225063543480561
-0.6383474058987184 -0.7503500893312443 0.1717187608357622
-0.6099450753950443 -0.7848714562639703 0.1092877035325014
-0.5811715285389493 -0.8130056852129682 0.03551633746731674
-0.5504288513807322 -0.8332484877554889 -0.05220188905468841
-0.5148514313753617 -0.8428852633759299 -0.1564366849381235
-0.4692937203850428 -0.8378011044119754 -0.2790209910620323
-0.405392806957957 -0.8122014489378807 -0.4195062316699896
-0.3249517555096355 -0.7567234891747973 -0.5672529572618602
0 0 0
0 0 0
0 0 0
0 0 0
-0.4141300366811176 0.7654655486443652 -0.4925025954825787
-0.4505979140791098 0.8243036840597944 -0.3427607857865382
-0.4896611716311161 0.8472652660182016 -0.2058482596378902
-0.5233173613624928 0.8475508133824849 -0.08829812020244597
-0.5528058484509584 0.833246449694844 0.01029796044628008
-0.5802812049767715 0.8091221317157005 0.0927097574074378
-0.607246341334852 0.7777981137243284 0.1621171651069443
-0.6345384902178103 0.7405056723116139 0.2213871127830744
-0.662502976047894 0.6976052146862263 0.2728310304387445
-0.6911174373677135 0.6489383747065256 0.3181755389710794
-0.7200595350669016 0.5940667652966636 0.3586069496387319
-0.7487379037331255 0.5324514646574566 0.3948252642593345
-0.776306400152398 0.4636153744594644 0.4270938510997725
-0.8016842665460547 0.3873104413798806 0.4552943649669252
-0.823607166480621 0.3036883551650971 0.4790037768732933
-0.8407307591450072 0.2134491623531589 0.4976055121461118
-0.8517936488783815 0.1179246036799733 0.5104325298973147
-0.8558198100263762 0.01905068132291191 0.5169231319137783
-0.8523108985004544 -0.08079588977593943 0.516757347787781
-0.8413640580781212 -0.1790793545492428 0.5099383360255845
-0.8236677609057979 -0.273435654430749 0.4967940846371426
-0.8003749688486275 -0.3619578541737557 0.4778979190606379
-0.7729006128304141 -0.4433636178673306 0.4539309914931577
-0.7427093553935137 -0.5170230526289354 0.4255231796990708
-0.7111454076138024 -0.5828716258066661 0.3931066993314822
-0.6793249831230691 -0.6412559348131114 0.3568030176046776
-0.6480828572317702 -0.6927583592526015 0.3163454849495215
-0.6179482423383548 -0.7380279380867611 0.2710253353366454
-0.5891215962115189 -0.7776195781235764 0.2196441135020523
-0.5614270434290142 -0.8118197567224971 0.1604629474413977
-0.5342197891124532 -0.8404157534759578 0.09116237288532966
-0.5062347035666109 -0.8623500611545164 0.008876763578389514
-0.4754053460155517 -0.8751967183195568 -0.08955702776728902
-0.4389510235425039 -0.8743691998473621 -0.2068828201888006
-0.3952630341981039 -0.8518819813022804 -0.3436047492818002
-0.3532994970816007 -0.7943182662803622 -0.4942043678633842
0 0 0
0 0 0
0 0 0
-0.2974703595406874 0.7574554289376229 -0.5811821215141215
-0.3762748626682038 0.8244576168298771 -0.422713692438775
-0.4182858831940647 0.86569413955445 -0.274973774497935
-0.4507281256882515 0.8809784662198253 -0.1439482503211451
-0.4788560513168028 0.8772931735715152 -0.03245873876320714
-0.5048862637235773 0.8610457076550616 0.06074660510711483
-0.5302956821577551 0.8363807945158872 0.1387575441185581
-0.5560537636040896 0.8054868974780487 0.2049269869317211
-0.5827183414653923 0.7692185244809816 0.2621873301956509
-0.6105191400188948 0.7275952707044632 0.3128442131782003
-0.6394068320070411 0.6801378115671699 0.3585686272658828
-0.6690673430245304 0.6260916474327558 0.4004474241558219
-0.6989118220505821 0.5645984477924542 0.4390340052299892
-0.7280571119799309 0.4948631291234687 0.474387315523477
-0.7553182545947352 0.4163461410091009 0.5061128581085366
-0.7792425700999965 0.3289850828057418 0.5334321252373636
-0.7982171937889347 0.2334166344984359 0.5553071098762746
-0.8106686849658989 0.1311341505326498 0.5706313326305699
-0.8153371416474691 0.02449540644751081 0.578468080807494
-0.8115556833083228 -0.08348519989486015 0.5782798581037349
-0.799430124661908 -0.1895488522815334 0.5700725465954303
-0.7798347827790267 -0.2906925144997943 0.5543965851101308
-0.7542233370395421 -0.384585896654063 0.5322037635715542
-0.7243379219563002 -0.4697842920139236 0.5046159864619871
-0.6919235696993238 -0.545721446710251 0.4726836958210163
-0.6585204345586315 -0.6125471630886963 0.4371919604255102
-0.6253528859038376 -0.6708977360841126 0.3985348112887425
-0.593295418712361 -0.7216674467172349 0.3566463829671492
-0.5628798293299562 -0.7658126938535157 0.3109617591703207
-0.534309762651658 -0.8041859247822595 0.2603806366019376
-0.5074571111942779 -0.8373702841864179 0.2032198008559097
-0.481823341605803 -0.8654662480527723 0.1371657426811601
-0.4564582578194497 -0.8877675038501741 0.05928505693733459
-0.4298519044272923 -0.9022677329054738 -0.03376800879302324
-0.399864431058316 -0.9050213637426581 -0.1450681493084822
-0.3636658311258668 -0.8897549321612978 -0.2758320575389597
-0.31591460153985 -0.8492879901824435 -0.4229750279458386
-0.2306304589825906 -0.782675306364228 -0.5781253810352394
0 0 0
0 0 0
-0.3256754382789704 0.7876618985813011 -0.5229954516294572
-0.3538515214519077 0.8615736722841436 -0.3639778949235579
-0.3814187934469743 0.8982405707828133 -0.2183657047368465
-0.4062739417684426 0.909074856485114 -0.0923276207128762
-0.4295355065299037 0.9029453478252845 0.01374581648263168
-0.4523391335762931 0.8859586107201407 0.1023066387204949
-0.475544476334115 0.8617356743621088 0.1768306493789837
-0.4997388922008312 0.8320462623481932 0.2407489500169977
-0.5252784606395652 0.7974250149075679 0.2969779190239457
-0.5523169679752261 0.7576219643962386 0.3477857471936377
-0.5808081411477188 0.7118955492971029 0.3947994808349007
-0.6104811004972162 0.6592055921189603 0.4390453430510315
-0.6407948061028551 0.5983676314184732 0.4809762927029251
-0.6708824740058059 0.5282215889414128 0.5204792589989129
-0.6995071376802622 0.4478537552974519 0.5568812963283435
-0.7250641394654492 0.3568864184095792 0.5889941239231591
-0.7456779845308543 0.2558060084967428 0.6152459909686261
-0.7594334420653867 0.1462394530737925 0.6339360136775605
-0.7647352497063956 0.0310343152497286 0.6435968218795651
-0.7607062980243591 -0.08599322935557449 0.6433747684290035
-0.747458213077716 -0.2006552550165256 0.6332801025904099
-0.7260882504903918 -0.3091439698317156 0.6141871525980404
-0.6984004239700358 -0.4086352394740115 0.587583261213669
-0.6664944680168303 -0.497547760555641 0.555185869839127
-0.6323915508084142 -0.5754641575252465 0.5185768312120069
-0.5977924918436673 -0.6428486927469864 0.4789464426518155
-0.5639773649699703 -0.7007095133254557 0.436961908793812
-0.5318051818252231 -0.7503003152508593 0.3927246943067139
-0.5017616842408843 -0.7928936802807373 0.345767008256454
-0.4740139117462397 -0.8296130707625489 0.2950473932963333
-0.4484454808984928 -0.8612846121314166 0.2389256528030303
-0.4246584344175478 -0.8882548692410183 0.1751242454592117
-0.4019368801961729 -0.9101109289657061 0.1007216030221238
-0.3791830545749646 -0.9252401368480891 0.0122841478551864
-0.3548733245723726 -0.9302103027503275 -0.09366811711620428
-0.327163421731829 -0.9190960029648343 -0.219605630198285
-0.2945772132626018 -0.8830830651488007 -0.3652239935626327
-0.260310327249513 -0.8103879451009072 -0.5248903809009836
0 0 0
0 0 0
-0.3068476396814814 0.8280977841158529 -0.4691466572025398
-0.3195819505504284 0.8948963595268357 -0.3114929896289793
-0.3375641946037785 0.9257888350089426 -0.1701923837728549
-0.3564815349573696 0.9329927593156125 -0.04945125174428072
-0.375680727283912 0.9253075257093097 0.0516717912709183
-0.3954630330186053 0.908312045258266 0.1363019367231091
-0.4162518923561023 0.8851103208293262 0.2081203547742755
-0.4383944848974322 0.8570923614724014 0.2705604544592148
-0.4621304693628067 0.8245233926899823 0.3264913539337795
-0.487584471784283 0.7869359192799668 0.3781444721555965
-0.5147435078813904 0.7433701515258998 0.4271298852975769
-0.5434109097515623 0.6925262664478113 0.4744596436398291
-0.5731367143633856 0.6328910984517809 0.5205412223342551
-0.6031307623178371 0.5628982913224558 0.5651360873030171
-0.6321774000474781 0.4811750389177724 0.6073074318594254
-0.65859252837323 0.3869086521624185 0.6454127179199494
-0.6802885354793876 0.2803140454487663 0.6772234080563491
-0.6950190953069464 0.1630875617936388 0.7002506011042897
-0.7008269567980188 0.0386209900417231 0.7122850523164336
-0.6965911240213141 -0.08828052965573666 0.7120164001049583
-0.6824239371857495 -0.2122517120390526 0.6994617792934726
-0.6596710684252394 -0.3284916774018921 0.6759639778570998
-0.6305102619479681 -0.4336262061659356 0.6437585905480733
-0.5973896913108137 -0.5259996701038134 0.6053510582845706
-0.5625598371318558 -0.6054630243909559 0.5629750933580774
-0.5278129689887432 -0.6729128876128464 0.5182679957819392
-0.4944131509583584 -0.7298126939729177 0.4721536485884856
-0.4631432750714227 -0.7778161509268786 0.4248533183504762
-0.4343974106808886 -0.8185152412152541 0.3759410718345007
-0.40827080916325 -0.8532804915127478 0.3243876526456392
-0.3846228524925168 -0.8831399650652052 0.268568545152159
-0.3631030156102357 -0.9086368319632711 0.2062408971433706
-0.3431396289535364 -0.9296009943155124 0.134525783436631
-0.3239074932364019 -0.9447677799989178 0.04997777207145435
-0.304339400752844 -0.9511916362312365 -0.05110773242027383
-0.2833956710846922 -0.9434675106635267 -0.1719184397696316
-0.2612378454364467 -0.9129134154003744 -0.3135982845835511
-0.243045946451649 -0.8470768518654046 -0.4726409577546328
0 0 0
0 0 0
-0.257565058641415 0.8687785895045415 -0.4229468086953053
-0.2700596630872115 0.9250815863832728 -0.2670053125086255
-0.2854716016817972 0.9494655419812686 -0.1304651264646775
-0.3013015609752497 0.9534150232980837 -0.01473644134083269
-0.3175219474095071 0.9446881805771845 0.08212219183048167
-0.3345139580425702 0.9280842576689387 0.1635849092727937
-0.35263650091802 0.9061852936562577 0.2334003251527655
-0.3721671823105333 0.8800485756942072 0.294967952207752
-0.3933107253602692 0.8497206348637466 0.3511146764282709
-0.4162001790267969 0.8145633067662245 0.4040594390038862
-0.4408746165673089 0.7734398784384727 0.4554342179807179
-0.467229660305393 0.7248220976700696 0.5062898095558181
-0.4949389190007827 0.6668797724417246 0.5570519146061788
-0.5233475729048476 0.5976186237705392 0.6074201992502484
-0.551351593815105 0.5151378033283261 0.656235067319333
-0.577302765602364 0.4180701277651993 0.701383550632784
-0.5990193564234391 0.3062136525636255 0.7398709411875096
-0.6140121246965435 0.1812285620751159 0.7682091635836047
-0.6199987889161926 0.04707270089025026 0.7831894167909516
-0.615612578701228 -0.09027111611128577 0.7828615960314099
-0.600958821681603 -0.2239890932063211 0.7672531399529549
-0.5776210954137907 -0.3480996326764728 0.7383634036593881
-0.5481094846073303 -0.4586577120011578 0.6994348405000633
-0.5151353719689602 -0.5540392194187485 0.6539694885025329
-0.4810666300448159 -0.6345077728791564 0.6049584974304076
-0.4476770355209183 -0.7015097116498915 0.5544992302321872
-0.4161274359547262 -0.7570301235867184 0.5037294403030481
-0.3870665565626359 -0.8031422570220071 0.452926037865278
-0.3607629138453821 -0.8417448084865875 0.4016413790680274
-0.337218720344037 -0.8744243857836265 0.3488058603241309
-0.3162456960497446 -0.9023708111434915 0.292772230456116
-0.2974974380489959 -0.926278239865986 0.2313090934335572
-0.2804594139723668 -0.9461686230057539 0.1615780119746228
-0.2644056098552943 -0.9610739586586016 0.0801655753134356
-0.248359193020389 -0.968524061391005 -0.01669891460344389
-0.2311922297421182 -0.9638385323291454 -0.1325346615209245
-0.2123341771246756 -0.9393269925794071 -0.269404896459795
-0.1948488113061792 -0.8833358324848983 -0.4263235247799258
0 0 0
-0.08955765671448471 0.8278896377378795 -0.5536950188055265
-0.1761080461108364 0.9052533262875254 -0.3866553650738523
-0.2087405882892353 0.9497391450785012 -0.2332872116216857
-0.2272979307316579 0.968639918985193 -0.100361138063816
-0.2419483079888455 0.9702187433034317 0.01168787423117133
-0.255797766421256 0.9609634900724733 0.1054356364879899
-0.2700065306456053 0.9449896999929663 0.1846373210267267
-0.2851089385753814 0.9244687008287077 0.2531215406331513
-0.3014093420023066 0.9002078236791103 0.314290125108403