# OOMMF: rectangular mesh v1.0
# Segment count: 1
# Begin: Segment
# Begin: Header
# Title: 
# Desc: time = 5.2e-10
# Desc: stepsize = 2.1438207611871223e-14
# Desc: step = 3326
# meshunit: m
# valueunit: (none)
# valuemultiplier: 384000.0000000001
# xmin: 0
# ymin: 0
# zmin: 0
# xmax: 9.357999999999999e-08
# ymax: 9.357999999999999e-08
# zmax: 2.3395e-08
# ValueRangeMaxMag: 1
# ValueRangeMinMag: 0
# meshtype: rectangular
# xbase: 1.16975e-09
# ybase: 1.16975e-09
# zbase: 1.16975e-09
# xstepsize: 2.3395e-09
# ystepsize: 2.3395e-09
# zstepsize: 2.3395e-09
# xnodes: 40
# ynodes: 40
# znodes: 10
# End: Header
# Begin: Data Text
0 0 0
0 0 0
0 0 0
0 0 0
0 0 0
0 0 0
0 0 0
0 0 0
0 0 0
0 0 0
0 0 0
0 0 0
0 0 0
0 0 0
0 0 0
0 0 0
-0.8357302032585003 0.02064841926339361 -0.5487519204006746
-0.8452409107820598 0.03943482101544982 -0.5329284169865526
-0.8553358801004276 0.02046725250894444 -0.5176694155419664
-0.8604010643077216 -0.01416398659036623 -0.5094206415350749
-0.8586848492538276 -0.0532594701119256 -0.5097291030589949
-0.8502922664441286 -0.08816682049572698 -0.5188734656821261
-0.8372545891957599 -0.1075802796150833 -0.5361261384306676
-0.8257689189153417 -0.08876354997006898 -0.556980003905076
0 0 0
0 0 0
0 0 0
0 0 0
0 0 0
0 0 0
0 0 0
0 0 0
0 0 0
0 0 0
0 0 0
0 0 0
0 0 0
0 0 0
0 0 0
0 0 0
0 0 0
0 0 0
0 0 0
0 0 0
0 0 0
0 0 0
0 0 0
0 0 0
0 0 0
0 0 0
0 0 0
0 0 0
-0.7825672210137669 0.2314043043478717 -0.5779624490605485
-0.8102701527196022 0.2610633938198254 -0.5246981837390204
-0.8469460152497998 0.243789077247072 -0.4724926804380217
-0.883194785863477 0.1956030875929991 -0.426270339511972
-0.9147937908718783 0.1138120881533239 -0.3875553234990297
-0.9276409506816325 0.07322447884769213 -0.3662245790713126
-0.9355264466894277 0.0343922039346612 -0.3515785031158319
-0.9389337202457756 -0.008307716970034169 -0.343997748283579
-0.9373552854861107 -0.0527795450457066 -0.3443535804896171
-0.9308292573628252 -0.09563580334646123 -0.3527189912035469
-0.9198892469246925 -0.1347427198984035 -0.3683044567021986
-0.9037802765316687 -0.1755384223230363 -0.3903427648114913
-0.8671995123797452 -0.2567895351358148 -0.426642872169527
-0.8264116658668237 -0.3057769564667681 -0.4728046228762371
-0.7858891755737754 -0.3242242062902212 -0.5265518661741191
-0.7556351983320289 -0.2955397153648327 -0.5845269229759981
0 0 0
0 0 0
0 0 0
0 0 0
0 0 0
0 0 0
0 0 0
0 0 0
0 0 0
0 0 0
0 0 0
0 0 0
0 0 0
0 0 0
0 0 0
0 0 0
0 0 0
0 0 0
0 0 0
0 0 0
0 0 0
0 0 0
-0.7566065925345685 0.3256747501884963 -0.5669941985795706
-0.7941866017379723 0.3539987135503361 -0.4939155316697358
-0.8491407827022419 0.3166249444398111 -0.4227393709016349
-0.8829261655920362 0.2952896532311649 -0.3650279534605016
-0.912752505922233 0.2619556836075534 -0.3134678336901294
-0.9391705002430882 0.2130715079967849 -0.2693683425221361
-0.959955383495085 0.1519578516926181 -0.2353603046560054
-0.9718951435083233 0.09855118772987083 -0.2137931089206729
-0.9785670858013621 0.0480288862884083 -0.2002490565973378
-0.9810728842371517 -0.002636164391604679 -0.1936208833052273
-0.9795466750252644 -0.05365629895199964 -0.1939312069516458
-0.9739842538933668 -0.1043254475440417 -0.2011737412350734
-0.9641976990613224 -0.1548571651262415 -0.2152720500527535
-0.9488897148780495 -0.2082561208194069 -0.2371448863878487
-0.9241641083692775 -0.2693247437627335 -0.2708964436812629
-0.8938954053803944 -0.3185619359247154 -0.3153875349783457
-0.8604884605179749 -0.3525021827238162 -0.3678339577721861
-0.8232926747349805 -0.3745689362106562 -0.4264824542155732
-0.7641980668061586 -0.4121091851933933 -0.4961525311524337
-0.7236280357384367 -0.3850704925325523 -0.5727854586789619
0 0 0
0 0 0
0 0 0
0 0 0
0 0 0
0 0 0
0 0 0
0 0 0
0 0 0
0 0 0
0 0 0
0 0 0
0 0 0
0 0 0
0 0 0
0 0 0
0 0 0
0 0 0
0 0 0
-0.7610125368271562 0.4065296772945547 -0.5055625977766557
-0.8120393109899339 0.4060417649277777 -0.4191923693739282
-0.8517004728828094 0.3959102207601383 -0.3433094836861589
-0.889561859476146 0.3643231385049984 -0.2755872800315876
-0.9188999838322471 0.3278356015353507 -0.2194234219016969
-0.9432778106708063 0.2840886444831024 -0.1718156394855929
-0.963665523933579 0.2319162621245632 -0.1325277531085125
-0.9794611423955791 0.1735446884106753 -0.1026553050825318
-0.9898805600809871 0.1154041316981854 -0.08257338046088664
-0.9958321273587718 0.05821599840891102 -0.07020877188326188
-0.9979263589765798 0.001349000040845961 -0.06435186289949621
-0.9963680166765765 -0.05545372941120978 -0.06461934105492777
-0.9911486269168552 -0.1121782901194405 -0.07099598993401326
-0.9820292892703729 -0.1690901937529145 -0.08382709222994254
-0.968334085191364 -0.2268381324201931 -0.1042763690234877
-0.9491261403249089 -0.284759831799864 -0.1344299369383689
-0.9254017318251279 -0.3365865261845758 -0.1741870980470519
-0.8977958401433543 -0.3801544686931275 -0.222362787700491
-0.8651814429867378 -0.4167185767795186 -0.2789385209651726
-0.8237036570693275 -0.4487162192347569 -0.34664973665976
-0.7805194244500095 -0.4598211946640166 -0.4235019444984661
-0.7260395186100801 -0.4604649666107632 -0.5107236355805272
0 0 0
0 0 0
0 0 0
0 0 0
0 0 0
0 0 0
0 0 0
0 0 0
0 0 0
0 0 0
0 0 0
0 0 0
0 0 0
0 0 0
0 0 0
0 0 0
-0.6569138315469536 0.4966201376099628 -0.5673029674191399
-0.708264417757271 0.5320291571945446 -0.4640113042090848
-0.7881557491994696 0.4968754066787301 -0.363215287731214
-0.8375924459865043 0.4698651172435671 -0.2786856042640761
-0.8741423806774044 0.4395376762977998 -0.2065955696968586
-0.9047878883687864 0.4004734651301738 -0.1448443329501827
-0.9299814545764921 0.3555115628104419 -0.09352017350213063
-0.9509787881560676 0.3050138169106306 -0.0510481730410093
-0.9683388069502069 0.2490778409013091 -0.01673870144878441
-0.981925861893128 0.1890356467298548 0.009334131500176496
-0.9914610132349125 0.1274918401668034 0.02740237081134476
-0.9970945831532806 0.06566984405816768 0.0385987542255001
-0.9990302740485074 0.003864872825194634 0.04385857148390038
-0.9973721600151377 -0.05784602726781712 0.04361893575121565
-0.9921246167855482 -0.119386983806364 0.03788789867157655
-0.9831903416857191 -0.1806876377237733 0.0262436580857313
-0.9703761944030412 -0.2414743199842609 0.007758487224274549
-0.953572064136644 -0.3005826061344874 -0.01871938534191776
-0.9331391230760829 -0.3555165641897748 -0.05347288632097666
-0.9091982305512994 -0.4050574568365856 -0.09636925974325641
-0.8810626125299076 -0.4492533199423052 -0.1479869160527031
-0.8472876156728777 -0.4879183606691802 -0.2098555923707274
-0.8073175432688277 -0.5183464823166856 -0.2820555062399983
-0.7537882500398861 -0.5457088474034347 -0.366067108557188
-0.6686221208039835 -0.5810301117790649 -0.4640565361866916
-0.6131743568640388 -0.5473243073142375 -0.5696080325165382
0 0 0
0 0 0
0 0 0
0 0 0
0 0 0
0 0 0
0 0 0
0 0 0
0 0 0
0 0 0
0 0 0
0 0 0
0 0 0
-0.6359711342439901 0.5429952501201608 -0.5483583452044439
-0.6990603891280659 0.5664830205007236 -0.4363617304903042
-0.7503771832507696 0.5715892885377177 -0.3319936265737429
-0.8020824769394799 0.5484423650424767 -0.236378240143298
-0.8426364333440327 0.5153561978832506 -0.1561147991209247
-0.8749339772353989 0.4759370343650108 -0.08929991488732981
-0.9020038391069688 0.4304196080147317 -0.03358623635856757
-0.9249878537948781 0.3797949412478559 0.01238034468350563
-0.9445399798005581 0.3245710470658245 0.04997861507640002
-0.9608835682945061 0.2651277125626428 0.08006287662154994
-0.9738865049246527 0.2023215924258162 0.1030099449758416
-0.9832999211279496 0.1375011621484753 0.1192253979552426
-0.988994477141418 0.07170608265166466 0.1294146896396439
-0.9909355617118029 0.005544181393354328 0.134223599220073
-0.9891261988784046 -0.06060247753882233 0.1340026209016625
-0.9835869156684918 -0.1264088685708078 0.1287539408033432
-0.9743581333039345 -0.1914972560611944 0.1181314055850723
-0.9615259164302106 -0.2552786578185331 0.1014924573326085
-0.9452809880291659 -0.3167638009689547 0.07813160734493955
-0.9259237362213624 -0.3746931452502171 0.04764747217189923
-0.9035726795216049 -0.4283249825488326 0.009701656904277399
-0.8779134175054769 -0.4774255822860011 -0.03650814625157792
-0.8481392871898756 -0.5216643147647329 -0.092336841109551
-0.8129100363815598 -0.5602246469206672 -0.1591402454841139
-0.7688857996920089 -0.5929887458326406 -0.2391212544877829
-0.7129480131921985 -0.6164966132755199 -0.3341213197404658
-0.6572724752815022 -0.6126859675731727 -0.4388721891123329
-0.5900691821481855 -0.5901428402488449 -0.5509535265174346
0 0 0
0 0 0
0 0 0
0 0 0
0 0 0
0 0 0
0 0 0
0 0 0
0 0 0
0 0 0
0 0 0
-0.5937346704984965 0.5885338565168082 -0.5487322122688755
-0.6622588744623727 0.6160430657909081 -0.4265021972824635
-0.7155439304787515 0.6239668888337364 -0.3141054045924176
-0.7595143556818283 0.6143898942794574 -0.2136890294809105
-0.7990584585104215 0.5879637333726485 -0.1257148683388132
-0.8329713826817664 0.5508749051913912 -0.05191834419163562
-0.8620637664059014 0.5067183934196285 0.009084735565837092
-0.8874850719660238 0.4569911505692023 0.05940820935609334
-0.9098460304185712 0.4025287830748568 0.1007510780480431
-0.9293678587016962 0.343798877109311 0.1344533945670409
-0.9459818506673312 0.2811926647009658 0.1613970988784518
-0.9594140395428978 0.2153297448445027 0.1820928381710255
-0.9693158645215854 0.1471002144441973 0.1969474084552578
-0.975396752157185 0.07739628374242614 0.2064242988218108
-0.9774740642902362 0.006969544225521429 0.2109404633853229
-0.9754757496491526 -0.06354511583076844 0.2107346200805111
-0.969436675376338 -0.1335525165411448 0.2058063598647989
-0.9595008256822413 -0.2024211684507993 0.195917931997328
-0.9459270333017411 -0.2694158666433645 0.1806575170585789
-0.9290800948959296 -0.3336870742122989 0.1595716571694527
-0.9093613204148875 -0.394419412004524 0.1322698619009531
-0.8870491107425464 -0.4510957111117056 0.09826766786426604
-0.8621582300998002 -0.5034551952943691 0.05671025129805076
-0.8343551810019223 -0.551191520723552 0.006272114293190173
-0.8028546454195742 -0.593656333466172 -0.05474099070815738
-0.7662606824098216 -0.6295641501092158 -0.128427206969919
-0.7235210957675812 -0.6555656350144812 -0.2162196155933543
-0.6757697670980106 -0.6656559672990169 -0.316602834913887
-0.6180096210278756 -0.6589440138830212 -0.4287853715843321
-0.544945017837929 -0.6325245135649574 -0.5504068197915361
0 0 0
0 0 0
0 0 0
0 0 0
0 0 0
0 0 0
0 0 0
0 0 0
0 0 0
-0.5509997527620889 0.6120892875027095 -0.56722656547498
-0.6161097472804978 0.6557213045461232 -0.4363924266875981
-0.668857035673208 0.6737591905628458 -0.3141318496468433
-0.7122537131017596 0.6711462524526445 -0.2055659407380678
-0.7493369326105317 0.652723981643393 -0.1115596934982988
-0.7826079355660686 0.6217251645897005 -0.03134707171212613
-0.8127154491178079 0.5815633916032009 0.03574381502051772
-0.8401202338546868 0.5346599109732876 0.09130592678452945
-0.8651785716291559 0.4823253507505827 0.1372162352531961
-0.8879894838643549 0.425234079557411 0.1750732821685746
-0.9084094400241998 0.3637621171911281 0.2060810796059336
-0.9261055216980418 0.2982473953488213 0.231034745975667
-0.9406200553934375 0.2291916655075631 0.2504098477566627
-0.9514596927342208 0.157319702543092 0.2645278138378915
-0.9581930226920682 0.08348578318373455 0.2736718021105488
-0.960519729040848 0.008573797103495326 0.278079736993768
-0.9583058656973111 -0.06654180953597075 0.2778885664323108
-0.9515979760535501 -0.1409936424701287 0.2730972075173816
-0.9406240397747209 -0.2139106217566875 0.2635690833492259
-0.9257785079639477 -0.2844236966718562 0.2490729109388699
-0.9075792850071653 -0.3517152657819949 0.2293386431497812
-0.8865836981513741 -0.4151239268508123 0.2040624206663098
-0.8632752360299258 -0.4742364036557885 0.1727880213009548
-0.8379657978821387 -0.5288282289777917 0.1347368762290514
-0.8107254879530458 -0.5786657472739458 0.08871378762729829
-0.7813201520833841 -0.6232510070156523 0.03312102357071883
-0.7491861978966031 -0.6614901021721736 -0.03392470500208339
-0.7135939395122208 -0.6912147336274824 -0.1140433317108755
-0.673593321366954 -0.7092469479465853 -0.2079442334816919
-0.6263533751883629 -0.712469665700142 -0.3163359366990626
-0.568824667533823 -0.695882786243897 -0.4383898326996941
-0.4989588229558118 -0.6536074766357564 -0.5690670957632231
0 0 0
0 0 0
0 0 0
0 0 0
0 0 0
0 0 0
0 0 0
0 0 0
-0.5844440665932961 0.6675204151687079 -0.461347622034498
-0.6197686097796002 0.7113561784888808 -0.331450234058684
-0.6586830870387004 0.7214604404669681 -0.213615129825524
-0.6941951742129703 0.7110888206569924 -0.1115605182673085
-0.7263527164325631 0.6868731500735461 -0.02483962638768729
-0.7562731841585963 0.652474149047139 0.04825303874192105
-0.784585662308084 0.6102843237075962 0.10944579817127
-0.8115314554417187 0.5618247247669468 0.1605293601469514
-0.8370926908945461 0.5079288638074948 0.2031848817263601
-0.8610330041197473 0.4490054348930059 0.2387808310000303
-0.8829317095339998 0.385283125425442 0.2683067452781815
-0.9022250901339223 0.3170154520881393 0.2923885939468018
-0.9182608468519992 0.244635355621718 0.3113688486642238
-0.9303746637042756 0.1688231889174375 0.3254254384969046
-0.9379817031851835 0.09048025077712819 0.3346694618711569
-0.9406606200450757 0.01065960114640762 0.3391813243676791
-0.9382134790021658 -0.06950178565579206 0.3390058548304267
-0.9306963857303133 -0.1488405798841267 0.3341417653755482
-0.9184192918815538 -0.2262230952518165 0.3245444738005443
-0.9019128706122119 -0.3006095985562108 0.310140360288552
-0.8818611111149854 -0.3711306120663687 0.2908316514588553
-0.8590060517471479 -0.4371604499463242 0.2664570210456142
-0.8340453277096143 -0.498343405374747 0.236690180711541
-0.8075478106426131 -0.5545256084787542 0.2009176026822661
-0.7798915609936838 -0.6056036442513933 0.1581561859690171
-0.751211140015949 -0.6513255145365591 0.1070368965806854
-0.7213481364083134 -0.6910519247867837 0.04587050630562042
-0.6897979844560382 -0.7234926066413835 -0.0271512205184748
-0.6555790291849617 -0.746504896596754 -0.1137830209212794
-0.6171672161264249 -0.7566630610717615 -0.2157907304502898
-0.5742953315832179 -0.7474528555797588 -0.3339148107038457
-0.534691451354892 -0.7051940575325242 -0.4656247341677771
0 0 0
0 0 0
0 0 0
0 0 0
0 0 0
0 0 0
0 0 0
-0.464159505697963 0.7254019124201866 -0.5082794691184741
-0.549082413718667 0.7526550555846674 -0.3633440108873732
-0.5961913181235111 0.7672589632326606 -0.236367501009112
-0.6326492612370811 0.764162212756023 -0.1257418977588358
-0.6644891958416568 0.7466392212185154 -0.03136848654169555
-0.6939834629923138 0.7183722827515073 0.04825159549261879
-0.7223328178995074 0.6818694018725543 0.1152797422590865
-0.7500889774868024 0.6386331618780974 0.1717970034732458
-0.7773578654704439 0.5894750032666162 0.2196223338257231
-0.8039369402010272 0.5347487826341568 0.2602482193051403
-0.829392954967926 0.4745557151660812 0.294795182207546
-0.8531084348333315 0.4089307878915817 0.324008655950104
-0.8743224318984734 0.3380089800323755 0.3482961591757969
-0.892184668708938 0.2621600976188788 0.3678023927833833
-0.9058352734278334 0.1820677281588853 0.3825098688622085
-0.9145076941811832 0.09873697882946322 0.3923349159774656
-0.9176364238379943 0.01344193652057388 0.3971935397113013
-0.9149457936510963 -0.07236635311822122 0.3970356477906405
-0.9064999149597497 -0.1571751607222284 0.3918595067494309
-0.8927018981914032 -0.2395356729030879 0.3817145299465687
-0.8742405383706088 -0.3181844542390815 0.3666907881990561
-0.8519945448977314 -0.3921433049162004 0.3468845973431318
-0.8269152601475008 -0.4607763961954683 0.3223294358948733
-0.7999146667503066 -0.5237829361382382 0.2928958206054698
-0.7717781438504663 -0.5811175511287793 0.2581877000261997
-0.7431025845568875 -0.6328564909393227 0.2174654241502317
-0.7142444430520625 -0.6790346586724127 0.1696078061024556
-0.6852574126217118 -0.7194631639030455 0.1131151370666896
-0.6557957360524846 -0.7535261169093969 0.04615564657574393
-0.6249607591560927 -0.7799426843297342 -0.03336852821999176
-0.5911034514136061 -0.7964321632288558 -0.1276421525262206
-0.5514876775357834 -0.7994558714627037 -0.2381840698073572
-0.4998416756737963 -0.7855075564529564 -0.3648783057608611
-0.4094481476795423 -0.7583768363435877 -0.5071654448592513
0 0 0
0 0 0
0 0 0
0 0 0
0 0 0
-0.3888566382928502 0.7235007482120006 -0.5703833642316879
-0.463346898513482 0.7798848752959251 -0.4208197154632796
-0.5216509655643293 0.8061681465066948 -0.2792367985845747
-0.5633936337241248 0.8112658602830981 -0.1563180009411928
-0.5967499757059407 0.8007408342200998 -0.05199598934011173
-0.6263072913407336 0.7787567760628287 0.03573598396101653
-0.6543648738670295 0.7482116735557087 0.1094801507304038
-0.6820620569049627 0.7108183769887921 0.1718388357315961
-0.7098691421098697 0.6674104085674866 0.2250536549713812
-0.737816192747544 0.6182534725325612 0.2709057205393563
-0.7656154177030914 0.5632813097563842 0.3107204503318897
-0.7927278047909975 0.5022804517758184 0.3453939421517478
-0.8184017928939034 0.4350533012219683 0.375429261624492
-0.8417089341841082 0.361572353438338 0.4009881586078491
-0.8615988895937249 0.2821197024206245 0.4219666182969428
-0.8769896863477876 0.1973893219238835 0.4380942200372402
-0.8868944632381026 0.1085256541909288 0.4490438658528006
-0.8905665758757648 0.01708248176370938 0.4545320260990501
-0.8876294008585625 -0.0750980493328401 0.4543944648847198
-0.8781537047167949 -0.1660686119172688 0.4486282280775911
-0.8626568052815299 -0.2539862918788237 0.4373947871649921
-0.8420219033022395 -0.3373026066630566 0.4209822631626906
-0.8173612844708382 -0.4148934211860348 0.3997298834272064
-0.7898618981753427 -0.4861058107344947 0.3739242203722617
-0.7606494711152693 -0.5507203822235173 0.3436850923383843
-0.7306908422777506 -0.6088470903676587 0.3088626127621582
-0.7007319125116266 -0.6607839649341755 0.2689597339262286
-0.6712528899361808 -0.7068627366865643 0.2230798718762086
-0.6424159052194857 -0.7472875534726626 0.1698914863843117
-0.6139792231640854 -0.7819532528908668 0.1076040139410127
-0.585151878430763 -0.8102120146766887 0.03396719656506673
-0.5543483242205717 -0.8305556048574364 -0.05362203533754614
-0.5187170840107324 -0.8402695545738073 -0.1577328831022162
-0.4731298728816182 -0.8352436911039308 -0.2802072444782696
-0.4092436516051287 -0.8096891156632501 -0.4206223598399917
-0.3288642856675894 -0.7542280605208087 -0.5683206087547457
0 0 0
0 0 0
0 0 0
0 0 0
-0.4156130323595834 0.7640865981045287 -0.4933938365341826
-0.452078180753718 0.8230668419861122 -0.3437823324567681
-0.4911479205265605 0.8461374578271739 -0.2069423171422474
-0.5248164473571288 0.8465019973061237 -0.08945426283964741
-0.5543187238476136 0.8322550808441279 0.009068230317244026
-0.5818055049822513 0.808177929625295 0.09138264845646948
-0.6087768755596338 0.776903207424864 0.1606615139876642
-0.6360682975368166 0.7396751318981336 0.2197676503038919
-0.6640246595541038 0.6968674316968551 0.2710111328788637
-0.6926250067823984 0.6483352805149383 0.3161201733823673
-0.7215509300461854 0.5936534703019415 0.3562861385851914
-0.7502181203116309 0.5322946796613105 0.3922182376692157
-0.7777909622068849 0.4637898124087469 0.4241936220821177
-0.8032023309080766 0.3878925115249966 0.4521121709561269
-0.8252032179708201 0.3047469051835034 0.4755722582654284
-0.8424634963230335 0.2150340591236619 0.4939793627065515
-0.8537309973336489 0.1200552823450077 0.5066854185515437
-0.858029940559612 0.02170798183857562 0.5131407064614579
-0.8548509409952754 -0.07767131622309993 0.5130273241413783
-0.844269628761451 -0.1755805380865033 0.5063400720822469
-0.8269466874235178 -0.2696762289877759 0.493390218466279
-0.8040068528039876 -0.3580563844418059 0.4747300350775038
-0.776841651714257 -0.4394296648765508 0.4510195314932009
-0.7469001360831564 -0.513147729099399 0.4228706597047044
-0.7155192918897387 -0.5791232283178105 0.3907024818917372
-0.6838152875437012 -0.6376797018269281 0.3546283271249555
-0.6526281752410061 -0.689378798710345 0.3143776976349879
-0.6224958419422199 -0.7348523800085862 0.2692413533622995
-0.5936294063834837 -0.7746420015776059 0.2180226989756625
-0.5658647009619783 -0.8090244280876332 0.1589862099764887
-0.5385694000487748 -0.8377804136437532 0.08981636736143096
-0.5104916797129726 -0.8598486507883109 0.007651318928678701
-0.4795795725034537 -0.8728015331985418 -0.0906692741984778
-0.4430676743209362 -0.8720516337105695 -0.2078869503229161
-0.399360169999244 -0.849608349730729 -0.3444954378304622
-0.3574165483802375 -0.7920325984009045 -0.4949118851010432
0 0 0
0 0 0
0 0 0
-0.2991728081637415 0.7560972066746983 -0.5820761504426538
-0.377950624241786 0.8232102798813101 -0.4236486288576636
-0.4199631811446101 0.8645616889316461 -0.2759782826864428
-0.4524206246760148 0.8799361588613301 -0.1450101192887305
-0.4805715974140795 0.8763123826046588 -0.0335789793267331
-0.5066286324310838 0.8601052910370687 0.05955096246953737
-0.5320649790267939 0.8354712041825151 0.1374580847932727
-0.55784688940141 0.8046113825042251 0.2034880122508693
-0.5845297699010117 0.7683936782804144 0.2605688071856736
-0.6123421085461882 0.7268517226399621 0.3110043655586324
-0.641235167429334 0.6795210251681408 0.3564668798167821
-0.6708980643066528 0.6256623251851039 0.3980482912330549
-0.7007486311377741 0.5644316579775446 0.4363121124049333
-0.7299145242069517 0.4950450196930309 0.4713334444200463
-0.7572257268749227 0.4169670370572414 0.5027401799801259
-0.7812472314470338 0.3301282773126186 0.5297811660251305
-0.8003833146540563 0.235143491074518 0.5514472669518574
-0.8130719894513688 0.1334683244662114 0.5666569917805435
-0.8180535190929524 0.0274111196591386 0.5744885294056514
-0.8146463979182169 -0.08006540894543651 0.5744047150305032
-0.8029283664477933 -0.1857442839694329 0.5663965919090264
-0.7837385639608569 -0.2866450150801235 0.5509886556820284
-0.758496930018645 -0.3804379407572006 0.5291024290104049
-0.7289200236663154 -0.4656611856525645 0.5018319034048605
-0.6967384565089065 -0.5417210938180516 0.4702061034633216
-0.6634885151265965 -0.6087372374275575 0.4349965127034572
-0.6303987743696545 -0.667318015474057 0.396590533796513
-0.5983530000405231 -0.7183347533708579 0.3549209340714267
-0.5678949191963917 -0.7627264553989495 0.3094248131379858
-0.5392410993485554 -0.8013332707520041 0.2590058415543089
-0.5122766133721235 -0.8347301828774506 0.2019856261850456
-0.4865161675549252 -0.8630126705079246 0.13605568437389
-0.4610231516094373 -0.8854717576458843 0.05828739221829694
-0.4343017012857692 -0.9001003691022841 -0.03466060879756208
-0.4042261620678514 -0.9029542203975047 -0.1458591298692994
-0.3679790534729827 -0.8877649217563593 -0.2765228017796216
-0.3202287638322819 -0.8473679113479365 -0.4235813518467065
-0.2350108159031437 -0.7808692057354937 -0.5788032480407805
0 0 0
0 0 0
-0.3275402781827357 0.7863777258377505 -0.523762769270806
-0.3557066611688404 0.8604287852126551 -0.3648767967103281
-0.3832859044282086 0.8972082875348827 -0.2193381048640953
-0.4081688268943373 0.9081208082808966 -0.09335312699074959
-0.4314690180372189 0.9020388747745756 0.01266313031658836
-0.4543181173777279 0.8850788402173367 0.1011459085771168
-0.4775720440293911 0.8608737816916243 0.1755598893755352
-0.501814704105862 0.8312061925502767 0.2393287868377266
-0.5273992831678939 0.7966241328282748 0.2953641601643471
-0.5544776915923014 0.7568921712488976 0.3459316849156807
-0.5830034100146686 0.7112847887802064 0.3926588508631443
-0.6127078395353097 0.658779170834969 0.4365765768407228
-0.6430557980126547 0.5982083209019565 0.4781485600166216
-0.6731909876226932 0.5284269775323064 0.5172802176766997
-0.7018919483492725 0.4485290330115624 0.5533257624475604
-0.7275734758827228 0.3581311136777017 0.5851315600853381
-0.7483798281678237 0.2576948560770558 0.6111636392513246
-0.7624094036007651 0.1488007948308614 0.6297540986439301
-0.7680666804656391 0.03423330326580597 0.6394541854628871
-0.7644553521632402 -0.08225785225935743 0.6394072726288416
-0.7516508746337316 -0.1965361917643386 0.6295986721627649
-0.7307070376845356 -0.3048168815927796 0.6108632365549129
-0.7033891054164062 -0.4042684122510742 0.5846458904649057
-0.6717710425532835 -0.4932802061783111 0.5526285412277913
-0.6378632505198538 -0.5713958791369147 0.5163692699431273
-0.60336828317764 -0.6390410960924363 0.4770463209796759
-0.5695760341717352 -0.6971916696270931 0.4353239220394209
-0.5373594100534912 -0.7470771554672736 0.3913062588381257
-0.5072192253400308 -0.7899537220029175 0.3445312388437307
-0.4793373064433101 -0.8269345910871811 0.293964162297291
-0.4536112081515525 -0.8588401295650906 0.2379716447140433
-0.4296562752957461 -0.8860141626911363 0.17428249656724
-0.4067696492981477 -0.9080430907325785 0.09998098710598625
-0.3838667245969937 -0.9233151539850972 0.01163890753685235
-0.359436976029813 -0.9284007134189916 -0.09421876450925415
-0.3316485899686893 -0.9173786541686927 -0.2200582142239131
-0.2990366745752316 -0.8814389587643723 -0.3655713736486565
-0.2648048685238043 -0.8087902233554479 -0.5251064236997436
0 0 0
0 0 0
-0.308865684977031 0.8269253414800325 -0.4698898469447924
-0.3216051275988634 0.8938655689086005 -0.312369151200662
-0.3396148514653269 0.9248645411756367 -0.1711354233937624
-0.3585769006942451 0.9321363917245197 -0.05044158513867186
-0.3778345055416332 0.9244879927354591 0.05062645267121137
-0.3976855463096128 0.9075093895348086 0.1351773433774422
-0.4185499782398469 0.8843166349816612 0.2068816202811034
-0.4407715513093414 0.8563121377957723 0.2691653064939654
-0.46458688216486 0.8237743122280264 0.3248921535426422
-0.4901183210195078 0.7862504255627579 0.376290180184655
-0.5173519693982763 0.7427976797480039 0.4249688773553963
-0.5460924371117934 0.6921355637050286 0.471944288644352
-0.5758944265669718 0.6327714900099134 0.5176348625041906
-0.6059771184716056 0.5631580196681061 0.5618227271767724
-0.6351397985212525 0.4819341119101777 0.6036033035957725
-0.6617182543715268 0.3882836455194662 0.6413772388022609
-0.6836461021268661 0.2823940964025024 0.6729647697790399
-0.6986919530461826 0.1659053604821692 0.6959202297043763
-0.7048971438878738 0.04212903351276154 0.7080573148227467
-0.7011157528576212 -0.08421444125082495 0.7080569390802564
-0.6874147051503006 -0.2078217800718306 0.6958959195676465
-0.6650879860263216 -0.3239123121858236 0.6728586663318563
-0.6362717722538512 -0.4290910129623208 0.6411233379217387
-0.6033916749709904 -0.521656198334061 0.603152797651936
-0.5686944335248881 -0.6014059519704804 0.5611573061203837
-0.5339818201082706 -0.6691900433876027 0.5167669703306862
-0.5005342838976377 -0.726436604160933 0.4709090047750311
-0.4691530464533697 -0.7747759056620949 0.4238133020670806
-0.4402497397080783 -0.8157861411812942 0.3750641792327043
-0.4139352674822722 -0.8508309136496977 0.3236423190999591
-0.3900828258265404 -0.8809357773003406 0.2679319788069818
-0.3683543318480025 -0.9066440820041933 0.2056978239446995
-0.348189922831278 -0.9277875434089548 0.1340673410414502
-0.3287759835165145 -0.9431045133621575 0.04960070098976364
-0.3090567835287741 -0.9496535010245925 -0.05140167844129411
-0.2880035559757086 -0.9420338915087723 -0.172122337290036
-0.2657878288841308 -0.9115654984439121 -0.313695986687368
-0.2475994277875894 -0.8457875719504561 -0.4725864010881076
0 0 0
0 0 0
-0.2597428269700249 0.8677465576916593 -0.4237329057931364
-0.2722525536885441 0.9241843702402291 -0.2678839241420371
-0.2877057737454272 0.9486636808879977 -0.1313872456427181
-0.3035977401084005 0.9526710362625026 -0.01569423039211673
-0.3198979729311983 0.943973373156612 0.08111447272735846
-0.3369846996994046 0.9273808585518151 0.1624994011072031
-0.355213603928158 0.9054868870589503 0.232199898683571
-0.3748590957797941 0.8793604283709642 0.2936084047270933
-0.3961229913237699 0.8490607170964992 0.349546097715718
-0.4191360401530909 0.8139642842938861 0.402227701356741
-0.4439360256175948 0.7729519900610544 0.4532836046224364
-0.4704190195393982 0.7245164095972384 0.5037677225467279
-0.4982618705536071 0.6668506429385915 0.5541167100573731
-0.5268171997961667 0.5979832286659448 0.6040527263684666
-0.5549938120793521 0.5160294118899489 0.6524534578175992
-0.581161662440564 0.4196212554598919 0.6972582907901371
-0.6031592350474569 0.3085268776109787 0.7355338897485185
-0.6185114111054996 0.1843387417784068 0.7638474079368448
-0.6249317885892361 0.05091441350233894 0.7790173182339212
-0.621021999935231 -0.08586947968074884 0.7790751620067239
-0.6068326464419688 -0.2192711995748749 0.7639857853711881
-0.5838897361307763 -0.343320969188642 0.7356653370633304
-0.5546634976796444 -0.4540323880378135 0.6972825789839173
-0.5218509535981841 -0.5497139391406387 0.6522930072775175
-0.4878266756926706 -0.6305617443030219 0.6036696291053307
-0.4543831434049868 -0.6979689064146771 0.553511846908178
-0.4227037930898021 -0.7538850746387807 0.5029699767822858
-0.3934589729888306 -0.8003633374115584 0.4523367823889693
-0.3669357134120194 -0.8392931258067267 0.4011797990881216
-0.3431514579835125 -0.872258597246038 0.3484422712791357
-0.321930454157221 -0.9004509941005469 0.2924872474304847
-0.3029371585408878 -0.9245679244697513 0.231091391048798
-0.285667054255956 -0.9446359542637232 0.1614225759458355
-0.2694039866679153 -0.9596926255484607 0.08007219514497456
-0.2531809191372975 -0.9672743262800649 -0.01672722045765939
-0.235879387324423 -0.96270784104837 -0.1324934995365449
-0.2169376817553882 -0.9383078273845947 -0.2692888102082948
-0.1994312155243528 -0.8824139597780377 -0.4261135926760868
0 0 0
-0.09194309473270858 0.826941965808795 -0.5547192555836302
-0.1784663314775686 0.904405135355826 -0.3875578920251118
-0.2111124445346484 0.9489947485254591 -0.2341804924277531
-0.2297180143459705 0.9679748631828424 -0.1012635083882702
-0.2444448493882689 0.9696034523714827 0.0107638634721716
-0.2583949902361768 0.9603740748331915 0.1044684900299466
-0.272725239600471 0.9444116091010258 0.1835964495301486
-0.2879667402072917 0.9238976554551176 0.2519688051702481
-0.3044209341867556 0.8996504047793005 0.3129809003905881