# OOMMF: rectangular mesh v1.0
# Segment count: 1
# Begin: Segment
# Begin: Header
# Title: 
# Desc: time = 5.8e-10
# Desc: stepsize = 1.0033591794049575e-13
# Desc: step = 3710
# meshunit: m
# valueunit: (none)
# valuemultiplier: 384000.0000000001
# xmin: 0
# ymin: 0
# zmin: 0
# xmax: 9.357999999999999e-08
# ymax: 9.357999999999999e-08
# zmax: 2.3395e-08
# ValueRangeMaxMag: 1
# ValueRangeMinMag: 0
# meshtype: rectangular
# xbase: 1.16975e-09
# ybase: 1.16975e-09
# zbase: 1.16975e-09
# xstepsize: 2.3395e-09
# ystepsize: 2.3395e-09
# zstepsize: 2.3395e-09
# xnodes: 40
# ynodes: 40
# znodes: 10
# End: Header
# Begin: Data Text
0 0 0
0 0 0
0 0 0
0 0 0
0 0 0
0 0 0
0 0 0
0 0 0
0 0 0
0 0 0
0 0 0
0 0 0
0 0 0
0 0 0
0 0 0
0 0 0
-0.8369032828384276 0.01996468139592782 -0.5469865690042317
-0.8463819744633978 0.03846016016940999 -0.531185814365541
-0.8564171679909948 0.01923117533258728 -0.5159261538879483
-0.8614044269389363 -0.01564993282004187 -0.5076785329839447
-0.859597022760749 -0.05499017742199297 -0.5080049594718081
-0.851104580375566 -0.09014036882521483 -0.5171998715891036
-0.8379665027546177 -0.1097969539552309 -0.5345622219754661
-0.8263990495272013 -0.09122224250930676 -0.5556465723930194
0 0 0
0 0 0
0 0 0
0 0 0
0 0 0
0 0 0
0 0 0
0 0 0
0 0 0
0 0 0
0 0 0
0 0 0
0 0 0
0 0 0
0 0 0
0 0 0
0 0 0
0 0 0
0 0 0
0 0 0
0 0 0
0 0 0
0 0 0
0 0 0
0 0 0
0 0 0
0 0 0
0 0 0
-0.7836045941509532 0.2315922984949174 -0.5764797024209616
-0.8112990325824476 0.2610015938581186 -0.5231367390408607
-0.8479468690823014 0.2434947100171394 -0.4708465072687603
-0.8841468234794461 0.1950837560687829 -0.4245311798317056
-0.9156674752926172 0.1130701985139014 -0.3857048157584637
-0.9284591495810787 0.07222636189315637 -0.3643445624774139
-0.9362794316332593 0.03314196787557532 -0.3496890559709214
-0.9396081214957251 -0.009802851386541814 -0.3421117976977224
-0.9379395746282877 -0.05451277497436801 -0.3424875351172649
-0.9313149384366977 -0.09759922968779051 -0.3508943940974255
-0.9202702884495085 -0.1369240589731375 -0.3665438558636311
-0.9040461162720582 -0.1779144742287168 -0.3886477319029753
-0.867302090972134 -0.2593154153456275 -0.4249030458345623
-0.8263697509315348 -0.3084816295239842 -0.4711179459451529
-0.7857132426340935 -0.3271248790746594 -0.5250181081065747
-0.7553563142432973 -0.2986437812192151 -0.5833084351111939
0 0 0
0 0 0
0 0 0
0 0 0
0 0 0
0 0 0
0 0 0
0 0 0
0 0 0
0 0 0
0 0 0
0 0 0
0 0 0
0 0 0
0 0 0
0 0 0
0 0 0
0 0 0
0 0 0
0 0 0
0 0 0
0 0 0
-0.7573931836718284 0.3262512784227058 -0.5656108809552741
-0.7949664276593629 0.354344466146343 -0.4924107819757541
-0.8498950360454305 0.3167605286974781 -0.4211189798199908
-0.8836586944174039 0.2951963888483141 -0.3633268553127383
-0.9134524602578467 0.2616336617513019 -0.3116928454223674
-0.939823476040296 0.2125191567203983 -0.2675209186407394
-0.9605472706757137 0.151168042817754 -0.2334462756783376
-0.9724267746646901 0.09751171434991869 -0.2118434173623704
-0.9790294833008241 0.04674006754488297 -0.198284232639967
-0.9814531877724118 -0.004168398312759153 -0.1916566322016451
-0.9798320538506388 -0.05542287034138902 -0.1919829463519092
-0.9741632125260298 -0.1063136912064166 -0.1992572067028726
-0.9642592606470884 -0.1570495297401154 -0.2133999143972139
-0.9488202862490632 -0.2106300392522617 -0.2353190408080822
-0.9239456601792336 -0.271859334298965 -0.2691039193146079
-0.8935356650484063 -0.3212598632111459 -0.3136656110829766
-0.8599958822020819 -0.3553612951050068 -0.366231392068941
-0.822670166214634 -0.37757031927206 -0.4250346475585022
-0.7634028328068806 -0.4152114617683357 -0.4947883960630353
-0.7227203323786734 -0.388322372023393 -0.5717351279679995
0 0 0
0 0 0
0 0 0
0 0 0
0 0 0
0 0 0
0 0 0
0 0 0
0 0 0
0 0 0
0 0 0
0 0 0
0 0 0
0 0 0
0 0 0
0 0 0
0 0 0
0 0 0
0 0 0
-0.7615435971005549 0.4072553552304215 -0.5041769782043704
-0.8125586639197022 0.4065593658562036 -0.4176815769502281
-0.852206694418606 0.396213460104793 -0.3416996400640473
-0.8900493668308904 0.3644125847734396 -0.2738897454500096
-0.919368211050955 0.3277030727349443 -0.2176529086160846
-0.9437190934116534 0.2837278526652717 -0.1699787585324711
-0.9640680988930627 0.2313196394779388 -0.1306289596089303
-0.9798125189884359 0.1727029467806392 -0.1007031270955319
-0.9901713958325221 0.1143095753212394 -0.08058491090118582
-0.9960495012061839 0.05686821341938554 -0.06820115431133739
-0.9980548698997184 -0.000246093288852348 -0.06234112693518232
-0.9963920083892365 -0.05728494833647647 -0.06262108520418695
-0.9910535550291794 -0.1142294724438031 -0.06902520329006791
-0.9818020799891799 -0.171340658386552 -0.08189660867570731
-0.9679632636173893 -0.2292647661503691 -0.1023952503253368
-0.9486042265379011 -0.2873422918211234 -0.1326062921788176
-0.9247328137259201 -0.3393123636509746 -0.1724422891640298
-0.8969865284005565 -0.3830095996077238 -0.2207233890557313
-0.8642349178853799 -0.4196825118204757 -0.2774249375591641
-0.8226147275293613 -0.4517683792904391 -0.3452685064194013
-0.779308694404281 -0.4629603838078527 -0.4223098884117918
-0.7246950884504934 -0.4636746842931019 -0.5097281784651728
0 0 0
0 0 0
0 0 0
0 0 0
0 0 0
0 0 0
0 0 0
0 0 0
0 0 0
0 0 0
0 0 0
0 0 0
0 0 0
0 0 0
0 0 0
0 0 0
-0.657214780701918 0.4976367481129886 -0.5660621864728816
-0.7085613346032484 0.5328421318887305 -0.4626230621029778
-0.7884338906961315 0.4975204657427478 -0.3617255674802088
-0.8378602583365923 0.4703215323512122 -0.2771061957209653
-0.8744036580336322 0.4397947463000392 -0.2049361460169634
-0.9050419666057895 0.4005227997987758 -0.1431101866523628
-0.9302258448661743 0.3553420366542639 -0.09171648995361345
-0.9512056088178824 0.3046134336147412 -0.04917871302543803
-0.9685356194533588 0.2484340429846711 -0.01480811049352142
-0.982077630931021 0.1881367712035114 0.01131733829264148
-0.9915517542271937 0.1263301609294275 0.02942463472193432
-0.9971061665802508 0.06424450268103353 0.04064402099821363
-0.9989432023281095 0.002182345087854856 0.04590986704814744
-0.9971672495627693 -0.05977232427404065 0.04565901499485032
-0.9917845842128207 -0.1215373767623636 0.03989993192381498
-0.982701050920111 -0.1830374840467627 0.02821212424366482
-0.9697279112677883 -0.2439964678701654 0.009669631590462167
-0.9527612593280144 -0.3032508581961589 -0.01687897292457485
-0.9321698487707226 -0.3583077753708835 -0.05171954322628817
-0.908078086278809 -0.4079488224572698 -0.09472036463159411
-0.8797991462414996 -0.4522210744502012 -0.1464566901709624
-0.8458868864388722 -0.4909406199428478 -0.2084530715554036
-0.8057875882003749 -0.5214058536631079 -0.2807887078713601
-0.7521173608745603 -0.5487824112465676 -0.3649073040889817
-0.6667640898464793 -0.5840937901890858 -0.4628823746414889
-0.6111985951619383 -0.550476868629389 -0.568692794376766
0 0 0
0 0 0
0 0 0
0 0 0
0 0 0
0 0 0
0 0 0
0 0 0
0 0 0
0 0 0
0 0 0
0 0 0
0 0 0
-0.6360378647285566 0.5441252342806867 -0.5471595416791389
-0.6991217589791603 0.5674329118627996 -0.4350271907097168
-0.7504298391571517 0.5723554518229985 -0.3305514986670941
-0.8021267703519346 0.5490337506768129 -0.2348501328560949
-0.842680261235331 0.5157680081486841 -0.1545099967467878
-0.8749826926315244 0.4761594248364088 -0.08762128585422095
-0.9020580073574697 0.4304392667674449 -0.0318337711711142
-0.9250434951513451 0.3795954551582131 0.01420642465265251
-0.9445875335868531 0.3241345484207667 0.05187664129808775
-0.9609082451604789 0.2644366136957563 0.08202817637695974
-0.9738694720251446 0.2013609609847555 0.1050333987299338
-0.9832195780077329 0.1362616348463389 0.1212931502241491
-0.988827167662501 0.07018621835782714 0.1315094188458869
-0.9906569373651277 0.003751405879184794 0.1363259307845514
-0.9887131082216714 -0.06265199723528815 0.1360923101173268
-0.9830193775534118 -0.1286911265174771 0.1308109219834667
-0.9736211103094625 -0.1939821703747078 0.1201368017573572
-0.9606108099739104 -0.2579326960843358 0.1034291837535862
-0.9441866264295878 -0.3195530313514335 0.07998421485282665
-0.9246560509715139 -0.37758533158912 0.04940146526671488
-0.9021421329114908 -0.431289791328172 0.0113440699048935
-0.876332224472169 -0.4804349388150219 -0.03498716789718302
-0.8464192058921748 -0.524694142680916 -0.09094275415445673
-0.8110599801328121 -0.5632563919908371 -0.1578731943948244
-0.7669044562420377 -0.5960097763917079 -0.2379703793366093
-0.7108257114585531 -0.6195074221520611 -0.3330726074416044
-0.6550307437453566 -0.6157099381371595 -0.4379908638630942
-0.5876915427781213 -0.5931692691304991 -0.5502443718078908
0 0 0
0 0 0
0 0 0
0 0 0
0 0 0
0 0 0
0 0 0
0 0 0
0 0 0
0 0 0
0 0 0
-0.5935822127944743 0.5897598967726508 -0.5475796022613761
-0.6621000319191224 0.6170985102677036 -0.4252210911491542
-0.715377131016489 0.6248516412267242 -0.312723499076877
-0.7593442615572551 0.6151073148725523 -0.2122246065618809
-0.7988917631338873 0.5885169086540017 -0.1241764833821841
-0.8328162599687629 0.551258850158806 -0.05030663229865777
-0.8619254662744379 0.5069205310755859 0.01077338208912052
-0.8873638439901435 0.4569930292308511 0.06117826095473806
-0.9097364688245757 0.402307983594424 0.1026052806963639
-0.9292583354242181 0.3433313466280595 0.1363911011289742
-0.9458546356463746 0.2804553408163298 0.1634130044820765
-0.9592461173515455 0.2143035942220239 0.1841761543998202
-0.9690802299418447 0.1457733729093315 0.1990819722790022
-0.9750639971295088 0.07576655873937625 0.2085896212150005
-0.9770144761511126 0.005045688568706991 0.2131132431784422
-0.9748618022744493 -0.06574337675288291 0.2128902883631384
-0.9686455505056166 -0.135995647359018 0.2079206131798188
-0.9585166053227585 -0.2050720588311361 0.1979680984585485
-0.9447422046189793 -0.2722329567044488 0.1826236131928828
-0.9276960149147374 -0.3366277550677548 0.1614368558581289
-0.9077872398174229 -0.397442856913499 0.1340205309387332
-0.8852998470912673 -0.4541645914558106 0.09989346629261998
-0.8602513841438243 -0.5065370572632297 0.05820451612839895
-0.8323083614164936 -0.5542603570512927 0.007632045437755197
-0.8006824774869027 -0.5966940171823515 -0.05351467185943001
-0.7639716987380539 -0.6325614139628511 -0.1273314615191782
-0.7211190838940063 -0.6585228575549905 -0.2152554596786761
-0.673261380283227 -0.668578430620535 -0.3157878970576702
-0.6153849175516539 -0.6618257521561746 -0.428121568053815
-0.5421782660670466 -0.6353617217047424 -0.5498710852526395
0 0 0
0 0 0
0 0 0
0 0 0
0 0 0
0 0 0
0 0 0
0 0 0
0 0 0
-0.550637719252128 0.6134120832409763 -0.5661481416297146
-0.6157437086475206 0.6568734294395524 -0.4351746579906945
-0.6684820250747241 0.674744671759544 -0.3128121002840209
-0.7118746534298035 0.6719747251856338 -0.2041676921451783
-0.7489626118962807 0.6534024440451276 -0.1100920165014462
-0.7822476174343328 0.62225404779368 -0.02980880780389548
-0.8123773486280553 0.5819340965112153 0.03735974777385037
-0.8398091418552308 0.5348551133451327 0.09300867155779298
-0.8648941280835513 0.4823207252462496 0.1390139029181068
-0.8877250947734537 0.4250006648455371 0.1769705935750715
-0.9081515266851308 0.3632691593895118 0.2080776836085574
-0.9258333406885887 0.2974656561300646 0.2331240199818911
-0.9403062717371242 0.228097120354672 0.2525783423370559
-0.9510717789785649 0.155897256216696 0.2667555374020434
-0.957695448685618 0.08173228592496347 0.2759334358216348
-0.9598768836693019 0.006499771821401166 0.2803464306239308
-0.9574853959331311 -0.06891205558276839 0.2801300504589465
-0.950574065284768 -0.1436235264533422 0.27528390628058
-0.9393800473237434 -0.2167542749682649 0.2656740690639996
-0.9243084927820115 -0.2874299464724701 0.2510733678466882
-0.9058880407054535 -0.3548319304501168 0.2312166923902281
-0.8846852715884836 -0.4183015364114164 0.2058052352838932
-0.8611902693116207 -0.4774309343148485 0.1743875655034736
-0.8357184049612725 -0.5320029951819039 0.1361894295695133
-0.8083400562943989 -0.5817928294641029 0.09001920336306411
-0.7788183229708949 -0.6263120664586664 0.03428141206363838
-0.7465844482817066 -0.6644763252037488 -0.0329070634913087
-0.7109029336686172 -0.6941251782953662 -0.1131691466689528
-0.6708179728188657 -0.712083914991138 -0.2072190757485432
-0.6234867515036632 -0.7152330201736372 -0.3157625651541136
-0.5658475261715428 -0.6985723677686735 -0.4379648663027818
-0.4958409801645632 -0.6562265291799005 -0.5687780452777214
0 0 0
0 0 0
0 0 0
0 0 0
0 0 0
0 0 0
0 0 0
0 0 0
-0.5838857555943712 0.6687773829889183 -0.4602328067581487
-0.6191987695382042 0.7124337324643274 -0.330198517030771
-0.6581044473558749 0.7223817407878037 -0.21228084451217
-0.6936168949801713 0.7118708226556117 -0.1101614036297989
-0.7257856616687933 0.6875236385652377 -0.02337562255871609
-0.7557275706912802 0.6529905527236349 0.04979133409276391
-0.7840697100084346 0.6106535219040318 0.1110718957859763
-0.8110497682506909 0.5620239411760327 0.162257089106945
-0.8366446410421433 0.5079274646693949 0.2050254502494341
-0.8606112889375563 0.4487674315527115 0.2407405278112096
-0.8825211870679794 0.3847703802990364 0.2703851120543778
-0.9018021825871125 0.3161915989492921 0.2945771481887376
-0.9177938580704873 0.243470317281763 0.3136505040499808
-0.9298252721655987 0.1672977856960297 0.3277749443495871
-0.9373077382653958 0.08859011738991938 0.3370548840895914
-0.9398199348358107 0.00841754074135001 0.3415664431601551
-0.9371684212937862 -0.07206556632682233 0.3413530493194785
-0.9294180599667951 -0.1516805691827049 0.3364150334630854
-0.9168907903360326 -0.2292825653144794 0.3267120809516788
-0.9001307858889439 -0.3038259752089764 0.3121767849845115
-0.8798350972659362 -0.3744410301750007 0.2927184936769867
-0.8567566089517321 -0.4405065515506273 0.2681829432654187
-0.8316004699658629 -0.501674751670431 0.2382500826630845
-0.804939295351765 -0.5578017813426364 0.202311402371654
-0.7771512570125862 -0.6087952194573899 0.159387278317891
-0.7483677969426439 -0.6544140847128577 0.1081103428384438
-0.7184248997844654 -0.6940290103559025 0.04679098368368344
-0.6868108100167278 -0.7263573070172236 -0.0263813151084705
-0.6525355838879724 -0.7492603879786927 -0.1131644059145867
-0.6140653670579564 -0.7593142063699593 -0.2153268700945977
-0.5711258007436926 -0.7500090766085584 -0.3336191012661788
-0.5314511875567147 -0.7076802540870054 -0.4655623408523379
0 0 0
0 0 0
0 0 0
0 0 0
0 0 0
0 0 0
0 0 0
-0.4634252165531329 0.7266918775784738 -0.5071054956556414
-0.5483304668140677 0.7537931368138272 -0.3621182211044294
-0.5954239653622704 0.7682496556276345 -0.2350803439258374
-0.6318745297478425 0.765022157852052 -0.124401272707849
-0.6637177617656329 0.7473823272868048 -0.0299731475854177
-0.6932264801981022 0.7190032636736493 0.04971271445807379
-0.7216005644179581 0.6823817523189745 0.1168236685512386
-0.7493897348035377 0.6390090617471152 0.1734429138827937
-0.7766964757099586 0.5896861912355398 0.2213883025045622
-0.8033130618874398 0.534758186155646 0.2621484444747845
-0.8287992013270983 0.4743199104884078 0.2968375084012
-0.8525286593154284 0.4084034470086492 0.3261924424588817
-0.873730588089481 0.3371454424895532 0.3506106245471353
-0.8915447592360788 0.2609229056144201 0.3702258494546405
-0.9051028972665301 0.1804325536840825 0.3850101802949797
-0.913633439365471 0.09669786107843915 0.3948714501405163
-0.9165709269513236 0.01101460767569248 0.3997204201505615
-0.9136456663629704 -0.07514411161557762 0.3995058933553655
-0.9049333360211009 -0.1602464674545385 0.3942292823041715
-0.8908525532240926 -0.2428303463326478 0.3839468079227654
-0.8721090752516115 -0.3216263462424511 0.3687577175687435
-0.849597361221933 -0.3956576364160282 0.3487683451094863
-0.8242812290825466 -0.4642956937764082 0.3240215488557037
-0.7970807049717872 -0.527250958675388 0.2943956119536473
-0.7687846115763384 -0.5844911593484329 0.2595001072195211
-0.7399890848964281 -0.6361059198320573 0.2185987488270659
-0.711046397830127 -0.6821424969958999 0.1705714921228007
-0.6820034452491199 -0.7224223323735619 0.1139178403774962
-0.6525058589968383 -0.7563368933705265 0.04680392826909242
-0.6216450033989817 -0.7826091206827852 -0.03287025970686826
-0.5877607372330073 -0.7989584606839268 -0.1272898026900875
-0.5481051684685738 -0.8018427069162289 -0.2379684803987494
-0.4963910366687501 -0.7877458689666597 -0.3647634639610788
-0.4058552029522486 -0.7604341312333139 -0.506972865439585
0 0 0
0 0 0
0 0 0
0 0 0
0 0 0
-0.3879233494174221 0.7248809713556468 -0.5692653619738881
-0.4624096156436433 0.7810907543200049 -0.4196124174474621
-0.5207002898617884 0.8072172906700589 -0.2779774339422872
-0.5624305666290852 0.8121827883269599 -0.1550192764359641
-0.5957810774901749 0.8015477326840879 -0.05065708177188804
-0.6253417607161647 0.7794673060334036 0.03712682493069517
-0.6534127655723241 0.7488281342958755 0.1109422510772377
-0.6811331466416785 0.711330872553205 0.1733955775061772
-0.7089717933071293 0.6677969924172229 0.226729295004823
-0.7369558246603087 0.6184808363112991 0.2727225102827402
-0.7647925028304573 0.5633060984090467 0.3126958060311997
-0.7919355269597363 0.502051512059504 0.3475376244060052
-0.8176236876519596 0.4345152839619712 0.3777406165530225
-0.8409170410635858 0.3606709512488774 0.4034538325187809
-0.8607531718104949 0.2808084860383023 0.4245592672254942
-0.876039502639725 0.1956374550994367 0.4407729301771588
-0.8857826430907064 0.1063250861346908 0.4517566659803616
-0.8892359276388053 0.01445267886104507 0.4572204993983671
-0.8860305748857978 -0.07810951386152115 0.4569996982623279
-0.8762524964661201 -0.1693903516133404 0.4510969643183161
-0.8604389732301905 -0.2575313973414827 0.439684378537512
-0.8394943043358535 -0.3409788589089967 0.4230635067750222
-0.8145494638324337 -0.41861289307799 0.4015873712147454
-0.7868051855542778 -0.4897920835348297 0.3755546763009457
-0.7573951151841037 -0.5543125957958063 0.3450944590070559
-0.7272883520334938 -0.6123011728997253 0.3100627785820555
-0.6972283825877151 -0.6640717201575712 0.2699654292702729
-0.6676894466398119 -0.7099696220488209 0.2239060932928698
-0.6388252440008667 -0.7502096096742185 0.1705516026887147
-0.6103838616447356 -0.7846935869518062 0.108108815738439
-0.5815628187571477 -0.8127770088383577 0.03432523478452696
-0.5507636627383212 -0.8329511376409864 -0.05340215454131435
-0.5151203051279942 -0.842497314369388 -0.1576367549945445
-0.4694869855627595 -0.8372985335029947 -0.2802019560619216
-0.4055018404395005 -0.8115622760311871 -0.4206363388049782
-0.3249860295182654 -0.7559325311811416 -0.5682869776090461
0 0 0
0 0 0
0 0 0
0 0 0
-0.414491393240454 0.7653981063739289 -0.4923033858189386
-0.4509484319072985 0.8241905290993162 -0.3425718661877202
-0.4900044576791918 0.8471077655863013 -0.2056795199768426
-0.5236601448130637 0.8473535660986514 -0.08815887223790136
-0.553154212718491 0.8330139515824605 0.01040064520884391
-0.580639771959292 0.8088579627399063 0.09276988375172804
-0.6076183156186569 0.7775051562693764 0.16212869733418
-0.6349258431803139 0.7401866712650047 0.2213433200785572
-0.6629066518412757 0.6972634017467763 0.2727242554836344
-0.6915375554531158 0.6485780694970633 0.3179973225758207
-0.7204956557061885 0.5936938492783346 0.3583484664925792
-0.7491893478058511 0.5320736794355365 0.39447803587294
-0.7767726534116725 0.4632423092201102 0.4266506859952396
-0.8021653890098782 0.3869531404930316 0.4547504323661605
-0.8241041380705298 0.3033584327921122 0.4783576390828748
-0.8412455847810923 0.2131575131834365 0.4968598803080909
-0.8523291096346222 0.1176798839633174 0.5095944797383816
-0.8563787873597412 0.01885801476768208 0.51600363161443
-0.852895430909934 -0.08093559663673847 0.5157701165538895
-0.8419744177752718 -0.1791691702702203 0.5088983083452648
-0.8243019035024537 -0.2734816104913057 0.4957158264624124
-0.8010285084080433 -0.3619674864429819 0.4767943660276768
-0.7735672624659027 -0.4433445729418987 0.4528126324253488
-0.7433815996624101 -0.5169819824854547 0.4243977227421994
-0.7118151787406983 -0.5828135036649191 0.3919790444145812
-0.6799841834992961 -0.6411836434762367 0.3556754778296263
-0.6487236725282194 -0.6926724650653175 0.3152181036073835
-0.6185632470228551 -0.7379264648714037 0.2698963539489452
-0.5897036825996662 -0.777497727939533 0.2185105255525593
-0.5619692194278643 -0.8116694670342789 0.1593212876546193
-0.5347149108342567 -0.8402250905655787 0.09000978455466423
-0.5066752668877126 -0.8621024814895938 0.007712673579844822
-0.4757835886102564 -0.8748704747566028 -0.09072832638322953
-0.4392599580591862 -0.8739374470168999 -0.208048138533909
-0.395500373360869 -0.8513145255392879 -0.344736179240343
-0.3534803848086678 -0.7935851551328713 -0.4952516724941489
0 0 0
0 0 0
0 0 0
-0.2978737319596512 0.7574593986736217 -0.5809703083372029
-0.3766499523679228 0.8244036931585642 -0.4224847501244994
-0.4186500675503691 0.8655879328059908 -0.2747538016492629
-0.4510903520370265 0.8808253279320098 -0.143750603381614
-0.4792234482811055 0.8770986817766884 -0.03229224431905174
-0.505264695005738 0.8608145948894488 0.06087545651633302
-0.5306896897990582 0.8361166613759393 0.1388430110251553
-0.5564666260016671 0.8051925715754307 0.2049629645230212
-0.5831522162755928 0.76889667996863 0.2621667183036054
-0.6109752015127412 0.7272491333451336 0.3127586948195309
-0.6398854427311872 0.6797718325554775 0.3584088110592147
-0.6695682614263442 0.6257121006066958 0.4002033363739715
-0.699434520301267 0.5642138193745107 0.4386959286769858
-0.7286011787641882 0.4944841908359063 0.4739469456772494
-0.7558838744389429 0.4159854980431044 0.5055646682482885
-0.7798309191369284 0.328656105159164 0.5327747198391282
-0.7988305821870185 0.2331317481355606 0.5545442173298769
-0.8113102009826983 0.1309028333987108 0.5697720649431686
-0.8160097462716889 0.02432242904438429 0.5775262015138313
-0.8122609323732642 -0.08360054824893144 0.5772721421241397
-0.8001670263577879 -0.1896122252460469 0.5690166376890723
-0.7805992717362841 -0.2907128199014262 0.553308985386776
-0.7550085627097691 -0.384573219467699 0.5310983987013869
-0.7251351185343616 -0.469748067112884 0.5035035385296373
-0.6927231207880302 -0.5456693040644877 0.4715715094526692
-0.6593127847544289 -0.6124843738400761 0.4360843309052612
-0.6261291438246545 -0.6708271076692981 0.3974333741263411
-0.594047627792078 -0.7215893630527576 0.3555505688980394
-0.5636009761985954 -0.7657251570167518 0.3098692039226556
-0.5349936002095799 -0.8040844197803945 0.2592876657329036
-0.508097883568644 -0.8372474223615854 0.2021219791659099
-0.4824154871745056 -0.8653111108653566 0.1360587341817728
-0.4569962027399559 -0.8875647528363588 0.05816597118413524
-0.4303301236543451 -0.9019967261897314 -0.03489828962345369
-0.4002781080954414 -0.9046560709539229 -0.1462013319561219
-0.3640125100559925 -0.8892664761844681 -0.276947696970374
-0.3161957398387635 -0.8486530713404243 -0.4240379919444492
-0.2308409629374935 -0.7818954149657628 -0.5790958555244612
0 0 0
0 0 0
-0.3260662140765989 0.7876739995864529 -0.5227336744588336
-0.3542325828272584 0.8615283354096659 -0.363714454689086
-0.3817968187536821 0.8981408133786493 -0.2181152643285323
-0.4066563768679637 0.9089267878933937 -0.09210149511499663
-0.429929118428627 0.9027550247033453 0.01393981707360522
-0.4527496501558712 0.8857308657286418 0.1024626164965847
-0.4759764868130925 0.861474038577857 0.176943111924207
-0.500195903425742 0.83175342556598 0.2408117465061929
-0.5257629806131737 0.7971035164968856 0.2969836227892877
-0.5528306090255951 0.7572749459351452 0.3477254290144914
-0.5813517150309419 0.7115275253255698 0.3946628486881587
-0.6110547874457228 0.6588231467536465 0.4388212711814286
-0.6413984088859914 0.5979799558931739 0.480653777087537
-0.6715158260331111 0.5278406375992474 0.5200488022156071
-0.7001705928473473 0.447493804172654 0.5563366212455189
-0.7257590408430454 0.3565627555533677 0.5883339323774986
-0.7464068126274278 0.2555327587683724 0.6144752877533708
-0.7601993681400072 0.1460268619290284 0.6330664074760984
-0.7655409204081246 0.03088640960605926 0.6426454145812661
-0.7615521685871254 -0.08607957172270582 0.6423617375375664
-0.7483411489419379 -0.2006891715535314 0.6322257359688995
-0.7270011728917734 -0.3091379462172875 0.6131093090326903
-0.6993331200013059 -0.4086021030041749 0.5864959579483935
-0.6674350896190291 -0.4974984712796139 0.5540989733068318
-0.6333281234952701 -0.5754067012313547 0.5174964890393071
-0.598714017361648 -0.6427879189157051 0.4778757335444985
-0.5648743850426908 -0.7006474283359587 0.435901491496472
-0.532669903128861 -0.7502365077835967 0.3916732779873578
-0.5025878050007743 -0.7928255877449626 0.3447217510998655
-0.4747963063574331 -0.8295360085542587 0.2940042142235497
-0.4491798356291604 -0.8611914663342101 0.2378796619664931
-0.4253409270827773 -0.8881354662429065 0.174070357470357
-0.402563966985899 -0.9099510962887117 0.0996556814614549
-0.3797514910485347 -0.9250206775934502 0.01120495742821533
-0.355380630958748 -0.9299064332243598 -0.09475564673047633
-0.3276092104828702 -0.918678390973462 -0.2206857928485675
-0.2949659801911153 -0.8825219059809587 -0.3662651443880914
-0.2606571125811675 -0.8096600358718977 -0.5258407515329764
0 0 0
0 0 0
-0.3072400711598168 0.828120857963186 -0.4688489983779708
-0.3199722293027809 0.8948596605707989 -0.3111976226742781
-0.3379581169397198 0.9256965487969755 -0.1699123619396969
-0.3568859523843848 0.9328516023614435 -0.04919659502828791
-0.3761022466542818 0.9251238285592341 0.05189414122524885
-0.395907451889485 0.9080906831400731 0.1364866320654507
-0.4167240719817068 0.8848547380851147 0.2082621912861467
-0.4388983718511834 0.856805107749766 0.2706533327344986
-0.4626691692514949 0.8242068476962491 0.3265276589122935
-0.4881602890965981 0.7865931062851896 0.3781148202513903
-0.5153580030723089 0.7430055720416937 0.4270232412695081
-0.5440649754409663 0.6921467273709947 0.474263861461151
-0.5738307747694744 0.6325063810950224 0.5202440963639497
-0.6038651008831982 0.5625214602820436 0.5647269664691792
-0.63295264475529 0.4808220114269759 0.6067793197074205
-0.6594101144669365 0.386596693547793 0.6447645287053364
-0.6811508731196136 0.2800589955147709 0.6764617114660998
-0.6959289897236165 0.1629002583735129 0.6993899821159214
-0.701786080303098 0.03850409085192601 0.7113464222729173
-0.6975978859455216 -0.08833357154249007 0.7110234663236411
-0.6834718971277716 -0.2122546099738281 0.6984369308544778
-0.6607489642570623 -0.3284610959839586 0.6749252659800457
-0.6316036655944322 -0.4335776364227112 0.6427186342418986
-0.5984832936839232 -0.5259448960523956 0.6043175601434044
-0.5636393932592286 -0.6054094325955082 0.5619520026574804
-0.5288664247287499 -0.6728639218297724 0.5172566553409309
-0.4954310057059183 -0.7297687615733623 0.4711535558784445
-0.4641184114552416 -0.7777754224385629 0.4238625866938217
-0.4353246754944986 -0.8184741591031067 0.3749566345406774
-0.4091465117538335 -0.8532338762641591 0.3234054488021299
-0.385444313046595 -0.8830807611478724 0.267583726767029
-0.3638681993406758 -0.9085554822777793 0.2052483109103838
-0.343846927872124 -0.9294845211115863 0.1335208418445101
-0.3245556995500454 -0.9445986977383912 0.04895812619489701
-0.3049280627985608 -0.950947085368105 -0.05213940302518017
-0.2839262495882705 -0.9431193755603859 -0.1729500744068247
-0.2617166548078269 -0.9124305965168353 -0.3146026051006763
-0.2434907570282845 -0.846430766125185 -0.4735685899619239
0 0 0
0 0 0
-0.2579711604070197 0.8688174010846357 -0.4226194552677317
-0.2704651757255035 0.9250570065470565 -0.2666798143054157
-0.2858845002952525 0.9493838035782156 -0.1301554685531617
-0.3017297763718159 0.9532839415874786 -0.01445229262275515
-0.3179726558626295 0.944514600864917 0.08237450380215719
-0.3349934265057045 0.9278732512441469 0.1638005916460098
-0.3531501265417837 0.9059403401635353 0.2335745880610723
-0.3727196032705035 0.8797721677148296 0.2950949512482851
-0.3939058871865565 0.8494150553753852 0.351186867267844
-0.4168413756268204 0.8142314741006247 0.4040672891356872
-0.4415644750185518 0.7730862583022103 0.4553662829260397
-0.4679701596394575 0.7244536216711178 0.5061332628217798
-0.4957314588973685 0.6665066678416353 0.5567936623042024
-0.5241931997705764 0.597254860013231 0.6070486978034461
-0.552251350268566 0.514800743927352 0.6557428155751232
-0.5782580905391445 0.4177788141553941 0.7007698931667472
-0.6000321686627696 0.3059854190200895 0.7391443160283065
-0.6150841309854256 0.1810743748038127 0.7673875048496109
-0.6211296352059241 0.04699297834127874 0.7822976647386665
-0.6167973348233281 -0.09028762348397908 0.7819265904165517
-0.6021863395273898 -0.223961774829587 0.7662980724899312
-0.5788748078815833 -0.3480496622661758 0.7374044951018811
-0.5493702134132438 -0.4586025941273233 0.698481230437852
-0.5163844787655917 -0.5539903447768192 0.6530250898579999
-0.4822881861529614 -0.6344705684673447 0.6040241743887492
-0.4488587257598002 -0.7014850969006914 0.5535742977555184
-0.4172604838998019 -0.7570160915544648 0.5028124160194382
-0.3881451612466867 -0.8031350711523509 0.4520148131266176
-0.3617835208214892 -0.8417396240812559 0.4007331896830512
-0.3381793567935701 -0.8744153895202404 0.3478971819501459
-0.3171454221657148 -0.902350927968819 0.2918588425817198
-0.2983359676086617 -0.9262385147984834 0.2303863366931783
-0.2812368704913467 -0.9460973155930557 0.1606415018102329
-0.2651224604773861 -0.9609554921645936 0.07921251813393961
-0.2490164141182948 -0.9683381071157854 -0.01766736559544126
-0.2317920098195907 -0.963559866008677 -0.1335097329827846
-0.2128819579378027 -0.9389270895517126 -0.2703649246676002
-0.1953594403874652 -0.8827865079191282 -0.4272267202404912
0 0 0
-0.09002738587560066 0.8280423858915172 -0.5533903477288783
-0.1765396779414392 0.9053194996580044 -0.3863034372760782
-0.2091651104557972 0.9497330886953281 -0.232931356423401
-0.2277311733811377 0.9685733983673344 -0.1000204211428957
-0.242400778725804 0.9701019438040041 0.01200337872501008
-0.256277710914113 0.9608043417283983 0.1057201579855076
-0.2705209086744543 0.9447938007821479 0.1848867544568019
-0.2856638587969534 0.9242397907127079 0.2533317371364348
-0.3020102841470935 0.899948521854479 0.3144557938428382