# OOMMF: rectangular mesh v1.0
# Segment count: 1
# Begin: Segment
# Begin: Header
# Title: 
# Desc: time = 1.3999999999999998e-10
# Desc: stepsize = 5.3731814114859565e-14
# Desc: step = 894
# meshunit: m
# valueunit: (none)
# valuemultiplier: 384000.0000000001
# xmin: 0
# ymin: 0
# zmin: 0
# xmax: 9.357999999999999e-08
# ymax: 9.357999999999999e-08
# zmax: 2.3395e-08
# ValueRangeMaxMag: 1
# ValueRangeMinMag: 0
# meshtype: rectangular
# xbase: 1.16975e-09
# ybase: 1.16975e-09
# zbase: 1.16975e-09
# xstepsize: 2.3395e-09
# ystepsize: 2.3395e-09
# zstepsize: 2.3395e-09
# xnodes: 40
# ynodes: 40
# znodes: 10
# End: Header
# Begin: Data Text
0 0 0
0 0 0
0 0 0
0 0 0
0 0 0
0 0 0
0 0 0
0 0 0
0 0 0
0 0 0
0 0 0
0 0 0
0 0 0
0 0 0
0 0 0
0 0 0
-0.8087193075249733 0.03750552362238375 -0.5869978001101346
-0.8201758170734109 0.06204659086232029 -0.5687370654795815
-0.8331786698297421 0.04766751925186494 -0.5509456522644623
-0.8415642887242056 0.01689412117413058 -0.5398927084281422
-0.8433289806976765 -0.01889340214924963 -0.5370654240133542
-0.8384043024727592 -0.05092470299101737 -0.5426646296014159
-0.8285895508077582 -0.06778584461893412 -0.5557377399110972
-0.8195514066878329 -0.04666221464876658 -0.5711025560440665
0 0 0
0 0 0
0 0 0
0 0 0
0 0 0
0 0 0
0 0 0
0 0 0
0 0 0
0 0 0
0 0 0
0 0 0
0 0 0
0 0 0
0 0 0
0 0 0
0 0 0
0 0 0
0 0 0
0 0 0
0 0 0
0 0 0
0 0 0
0 0 0
0 0 0
0 0 0
0 0 0
0 0 0
-0.7482577700406007 0.2294506474237474 -0.6224650271064953
-0.7777969193273128 0.2662111143124373 -0.5693536641679506
-0.8174742346999417 0.2548310943929843 -0.5165239480723213
-0.85743223633999 0.2114387062054681 -0.4691520367675715
-0.8933439184595711 0.1332678252741621 -0.42915769840234
-0.908990844470755 0.09708767083208668 -0.4053512413213305
-0.9196367437802561 0.06236344777259349 -0.3877873900362955
-0.9259356465721799 0.02329008049842876 -0.3769625320338021
-0.9273388931161447 -0.01804066218662727 -0.3737875222930679
-0.9238256136941769 -0.0582180518623031 -0.378360798603575
-0.9159139657882933 -0.09511097852916195 -0.3899429561322857
-0.9030481518079216 -0.1342654612508576 -0.4080157122359271
-0.8711036579379476 -0.2148825186517112 -0.4415924821654275
-0.8342814677386149 -0.2634558053732648 -0.4843195961377426
-0.7971973992722304 -0.2816768112696608 -0.53397985035631
-0.7694106440926326 -0.2529784604925304 -0.5865229401172548
0 0 0
0 0 0
0 0 0
0 0 0
0 0 0
0 0 0
0 0 0
0 0 0
0 0 0
0 0 0
0 0 0
0 0 0
0 0 0
0 0 0
0 0 0
0 0 0
0 0 0
0 0 0
0 0 0
0 0 0
0 0 0
0 0 0
-0.7240092540357117 0.3130568566964758 -0.6146592588955071
-0.7636059575472703 0.3488753894217027 -0.5433156580241093
-0.8220581981695397 0.3173355852793717 -0.472777373758144
-0.8585001960740283 0.302088848379102 -0.4143908071203345
-0.8911614010127693 0.2742823625682224 -0.361386971166576
-0.9206428851777837 0.2302195241198191 -0.3153024717403423
-0.944539929515572 0.1733310698641732 -0.2789276998981256
-0.9590858079540129 0.1240451631531613 -0.2544940283769016
-0.9682458458495152 0.07736311042370658 -0.2377286922959138
-0.9732886313929801 0.03013862283903964 -0.2275981182139809
-0.9743849776873819 -0.01789479911426457 -0.2241733512749003
-0.9715355835051838 -0.06606312952318193 -0.2274956546856322
-0.9645867222887011 -0.1146231715778737 -0.2375583796075579
-0.9523605972544992 -0.1666573118514256 -0.2554107147390445
-0.9311440881246876 -0.2270393473729696 -0.2853485971489949
-0.9042190611886091 -0.2759935282579313 -0.3259071366860938
-0.8739593773808979 -0.3100188201590612 -0.3742770869759148
-0.8398817671788447 -0.3326562598214787 -0.428880437840344
-0.7849909740837996 -0.3714702416954914 -0.4957812321393981
-0.747075470181365 -0.34572908416314 -0.5677584365000735
0 0 0
0 0 0
0 0 0
0 0 0
0 0 0
0 0 0
0 0 0
0 0 0
0 0 0
0 0 0
0 0 0
0 0 0
0 0 0
0 0 0
0 0 0
0 0 0
0 0 0
0 0 0
0 0 0
-0.7333170438250444 0.389999710649522 -0.5569078370152339
-0.7871140979804668 0.3964616310507441 -0.4725140970013265
-0.8293423905831452 0.3930642390862617 -0.3971041464570358
-0.8699531793233193 0.3675132635213311 -0.3288091648983474
-0.9017098036607923 0.3367055151904337 -0.2711988680329604
-0.9284420104928808 0.2981919221665613 -0.2215333173735907
-0.9512125398461244 0.2507727189798162 -0.1797435602600403
-0.9693689795608135 0.1967377695880536 -0.1470307161199471
-0.9820000477038966 0.1426530880693881 -0.1237982341304242
-0.9901390884292539 0.08920843839058713 -0.10801129609628
-0.9944972008868532 0.03570062927190621 -0.09849255046856735
-0.9953213176308485 -0.0181937323748786 -0.09489184776292434
-0.9926160392116465 -0.07251843282394688 -0.09723412775636418
-0.9861549566391816 -0.1275935315082734 -0.1059164397684337
-0.9752824742646276 -0.1841155934948166 -0.1221701421146636
-0.959044413291302 -0.2414259486244193 -0.1481462948086824
-0.9382471791668641 -0.2931498247732223 -0.1837264570519202
-0.9135108804646881 -0.3370905354364637 -0.2277451255060974
-0.8838289007705004 -0.3745474686243467 -0.2802867601402216
-0.8455797195147476 -0.4079879494049864 -0.3442975037459239
-0.8053670098529151 -0.4209229522503356 -0.4173821363084863
-0.7542431137967128 -0.4238801256716448 -0.5014408881920469
0 0 0
0 0 0
0 0 0
0 0 0
0 0 0
0 0 0
0 0 0
0 0 0
0 0 0
0 0 0
0 0 0
0 0 0
0 0 0
0 0 0
0 0 0
0 0 0
-0.6293733138392343 0.4700456570377513 -0.6188265606185377
-0.6831992798604898 0.5136760889446903 -0.5190140842449211
-0.7675511192445864 0.4844717693784021 -0.4197051155534589
-0.820038498643188 0.4636991651206134 -0.3354399275719446
-0.8590117629618446 0.4394268403785703 -0.2626839223250818
-0.8918067943378424 0.4060301215774601 -0.1995499484957425
-0.9188891034653662 0.3663972310443484 -0.1462733216128258
-0.9416675778623906 0.3209021362452423 -0.1014100180259218
-0.9608059211490214 0.2696473431086815 -0.06436064200587965
-0.9762007917540416 0.2139836048399022 -0.03525664530981202
-0.9875746011776083 0.1565355433674407 -0.01389355143752619
-0.9951376135417135 0.09849067606750847 0.0008466653810177034
-0.9991478159702516 0.04007425868266264 0.009884110122345909
-0.9997319135035642 -0.01871565888831886 0.01363177299097439
-0.9968899487499983 -0.07787761994181985 0.01206260309480352
-0.9905039621749544 -0.1374035536429322 0.004707904205676339
-0.9803464414514477 -0.1970588140600151 -0.009416928094820365
-0.9662487848765736 -0.2556747482603817 -0.03152314747189303
-0.9484879373948228 -0.3106999273994759 -0.06193696578356185
-0.9271757793617345 -0.3608766226616089 -0.1005640958857094
-0.9016905339078831 -0.4062479243698525 -0.1480432538351621
-0.8706853487031403 -0.4466226694600889 -0.2059980938699061
-0.8336117728122939 -0.479257812995391 -0.2745967241458258
-0.7835472476712794 -0.5093711497964665 -0.3558015492121804
-0.7032482963556622 -0.5479439031520265 -0.4529893074581128
-0.6507327127202087 -0.517347371615908 -0.5557865000860576
0 0 0
0 0 0
0 0 0
0 0 0
0 0 0
0 0 0
0 0 0
0 0 0
0 0 0
0 0 0
0 0 0
0 0 0
0 0 0
-0.6135440531194555 0.5117118011031574 -0.6014272420613427
-0.679528326098735 0.5430691843612432 -0.493271846983653
-0.7337855206542918 0.5557672700156424 -0.3907448672183286
-0.7886877123849989 0.539163382741128 -0.2954226447719613
-0.8317471850816697 0.5120575757787655 -0.2144613233109695
-0.8659628195992589 0.4782281922712954 -0.1463085479000785
-0.8945828438645982 0.4379920474619307 -0.08879471731602581
-0.9188890024549269 0.3924156206902953 -0.04065687894611479
-0.9396827458061024 0.3420468050972379 -0.0005660009498442537
-0.9573039262121169 0.2872724855242211 0.03230653060298002
-0.9716931513140838 0.2289335673372517 0.05832530699056955
-0.9826466350921268 0.168340813092778 0.07789070027533482
-0.9900785219520076 0.1064650022507239 0.09170454549846807
-0.9939815182183175 0.04382205488777052 0.1004010405614451
-0.9943578898964225 -0.01930533802966207 0.1043057559499666
-0.9911991750112646 -0.08268435448741193 0.1033803316883215
-0.9844941576530395 -0.1460093728681913 0.09722405351387647
-0.9742610839193155 -0.2087307312087588 0.08512826915553126
-0.9606146161671217 -0.2698545121264376 0.0663181837137829
-0.9437898137624373 -0.3280764417108675 0.04033157364397075
-0.9238878929215028 -0.3826031151144792 0.006783628657414518
-0.900630082051094 -0.4331607411910307 -0.03517424619627006
-0.8732859363588326 -0.479384923754623 -0.08695842819790708
-0.8406241785351911 -0.5204281012974273 -0.1500186049861446
-0.7995395412945656 -0.5561670207336726 -0.2267482457588272
-0.7470679817493441 -0.5830957108213245 -0.3192002861319757
-0.6945478629238263 -0.5830145196542585 -0.4215416183252363
-0.6308248712859958 -0.5646338161148843 -0.5322110816833383
0 0 0
0 0 0
0 0 0
0 0 0
0 0 0
0 0 0
0 0 0
0 0 0
0 0 0
0 0 0
0 0 0
-0.5758213303718611 0.5528296627583453 -0.6023364171816888
-0.6474371611806781 0.5883404144302936 -0.4844385193915677
-0.703657201837509 0.6040058298781066 -0.3742238631828093
-0.7502744938058757 0.601511603606691 -0.2743573849395043
-0.7921680330527985 0.5813277803711617 -0.1858166278296909
-0.8278905467663582 0.5498401276395086 -0.1107839185634303
-0.858301899557669 0.5108813936289637 -0.04814614064932144
-0.8847084617020186 0.4661267795079779 0.004094290948139256
-0.9078768582532984 0.4165251782782424 0.04760657631460271
-0.9281764973824039 0.3625959114544177 0.08374123657715869
-0.9456635640837741 0.3047288168487458 0.1134053426710432
-0.9601574247482969 0.2434991869606541 0.1371344801653415
-0.9713737619435979 0.179718048497439 0.1553526235755731
-0.9790626811344975 0.1141700194897207 0.168527365906684
-0.9830536240119305 0.04748147867627584 0.1770623661304788
-0.9832530748711898 -0.01984059653104443 0.181162196624025
-0.9796415143484762 -0.08731517503422417 0.1807721316292039
-0.9722823256407993 -0.1543955823269634 0.1755821272351938
-0.961338536600124 -0.2203887556295171 0.1650969849500721
-0.9470798152079094 -0.2844378040248868 0.1487782217505351
-0.9298334118081208 -0.3456773561993325 0.1261625605966699
-0.909845304690085 -0.4035199922113862 0.09671161987645881
-0.8871457761255045 -0.4576335244140612 0.05953090991275231
-0.8614632818846776 -0.5076467874351206 0.01325719319015956
-0.8321194030830921 -0.5528602251406631 -0.04385054697552959
-0.7978685078042386 -0.5919616825170579 -0.1139614438562911
-0.7577521693092966 -0.6215899472750602 -0.1985889910182393
-0.7127856584798802 -0.6357447427095388 -0.2962519657024829
-0.6582081418548856 -0.6336154850867534 -0.4065629828872966
-0.5888709800417962 -0.612150883465674 -0.5277331378043344
0 0 0
0 0 0
0 0 0
0 0 0
0 0 0
0 0 0
0 0 0
0 0 0
0 0 0
-0.5378136635423117 0.5714498509115657 -0.6198399238515906
-0.6057161743298424 0.6235264709787294 -0.494290052645237
-0.6613431905449441 0.6497075917136913 -0.3748402721019025
-0.7073061681640821 0.6544604880045195 -0.2672067628596421
-0.7465010761657999 0.6425279300409467 -0.1728988212816923
-0.7814206921515152 0.6172376638495923 -0.09164806709878726
-0.8126954741686042 0.5822296577714776 -0.02312340539745202
-0.8408623999603314 0.5401742666556435 0.03409084885989781
-0.866411601454076 0.4925810354606095 0.08182212641050288
-0.8895900736904875 0.4402501775281994 0.1216933933200219
-0.9104001090555375 0.3836103469559003 0.1549669098228343
-0.9286401642102129 0.3229861556021888 0.1825031197129152
-0.9439600821740016 0.258809560067902 0.204834017876695
-0.9559444512997463 0.1916898729770415 0.2223177874738592
-0.9642056990341289 0.1223328120406013 0.2352489172097189
-0.9684476685430987 0.05145644938827333 0.2438469747808807
-0.9684974059917276 -0.02022870751240578 0.2482006728026165
-0.9643220966320349 -0.09199695016074619 0.2482326632583163
-0.9560395355193176 -0.1630775505987958 0.2437090868529607
-0.9439194057734236 -0.232646633472886 0.2342897764267124
-0.9283603407257482 -0.2998722183475812 0.2195990219260378
-0.9098270946624426 -0.3640281176735513 0.1992440397129836
-0.8887530478871534 -0.4246063638837626 0.1727062697782107
-0.8654494203433366 -0.4812787761504062 0.1391691074001312
-0.8400348367744997 -0.533714643666734 0.09741741189813062
-0.8123692986764564 -0.5813387415764565 0.045840921786367
-0.7820161976688133 -0.6230134852994956 -0.01746034703509599
-0.7483681157553065 -0.6565682955066207 -0.09414476435990721
-0.7105656517632456 -0.6788719263810641 -0.1850117890998737
-0.6659474877728513 -0.6868955092839892 -0.2910128912170671
-0.6115640399119127 -0.6756448720797418 -0.4116958002202227
-0.5453011411903367 -0.6390480621504133 -0.5424612794276814
0 0 0
0 0 0
0 0 0
0 0 0
0 0 0
0 0 0
0 0 0
0 0 0
-0.578972121655725 0.6300348486078488 -0.5175397297649262
-0.6164762932376715 0.6829441679566496 -0.3918472193724736
-0.6578253449661879 0.7009338609322242 -0.2756039515659393
-0.695411565437886 0.697323921748406 -0.1736148116165536
-0.7291388436606666 0.6789259201369968 -0.0861170228893077
-0.7601401272551249 0.6496515228543869 -0.01182733230858666
-0.7890982097148096 0.6121672607672467 0.05074702227330567
-0.8163471876469937 0.56824752375169 0.1033054740607493
-0.8419920537857705 0.5189233463999019 0.14753962831303
-0.8659352876925603 0.4647280592091018 0.1848889085709143
-0.8879005357841891 0.4059385321446813 0.2164406308306524
-0.9074631320926584 0.3427825042347618 0.2429214249158091
-0.9240928600045463 0.2755995480752356 0.264758900113562
-0.9372183064149138 0.2049192849041361 0.2821877615970216
-0.9463067444330754 0.1314503934760762 0.2953376702953046
-0.9509380621706863 0.05603259756343171 0.3042649337754082
-0.9508603746704847 -0.02040540118406681 0.3089468683835818
-0.9460245999458773 -0.09687602902667358 0.3092773695200878
-0.9365984448336714 -0.1723647336402426 0.3050799104042673
-0.922954776702582 -0.2458788125774653 0.2961386325479711
-0.9056297904338468 -0.3165217424082464 0.2822209582252774
-0.8852503081321912 -0.3835794876800158 0.263056398103137
-0.8624471231070003 -0.4465698535181262 0.238244256537817
-0.8377763522122088 -0.5051994919244256 0.2071334280923928
-0.8116569144599958 -0.559233643808975 0.1687328801431856
-0.7843117346061199 -0.6083153164815158 0.1216863948563356
-0.7557080317761568 -0.651742295699991 0.06432224113564601
-0.725486683102438 -0.6882168070102024 -0.005167125864872153
-0.6928182226614339 -0.7156502593386771 -0.08858677472814794
-0.6563301413841074 -0.7307164223285686 -0.1878410382479125
-0.615778810077776 -0.726968696294072 -0.3038634095571481
-0.5784420535015821 -0.6906552629716002 -0.4340508017162302
0 0 0
0 0 0
0 0 0
0 0 0
0 0 0
0 0 0
0 0 0
-0.4597705368887117 0.6854857196061807 -0.5645532584487153
-0.5489542954110852 0.720673391336756 -0.4234135620984491
-0.5989509839077678 0.743139680283767 -0.2983305791628755
-0.6376602670908591 0.7470004279655977 -0.1880950408512344
-0.6711792794758298 0.735413955560415 -0.09319167757525017
-0.7018125869255285 0.712250302156716 -0.01259364564229513
-0.7308239307691424 0.6803000672430392 0.05557158198445698
-0.7588430650200586 0.6413512602899782 0.113250887835013
-0.7860705669651593 0.5964644003939008 0.1622445155122866
-0.8124178896960411 0.546184522056996 0.2041069336578298
-0.8375839142507751 0.490733855108384 0.2400697191209528
-0.8610967021168792 0.4301913338582774 0.2710127042717186
-0.8823449759160411 0.3646559816716225 0.2974783328358979
-0.9006181652505659 0.2943827203883529 0.3197275939881584
-0.9151686027330318 0.219868912801217 0.3378225714117995
-0.9252953139622445 0.1418785230264508 0.3517087810438395
-0.9304358249241818 0.06141625402095958 0.3612716698548196
-0.9302468949494951 -0.02032947834058207 0.366370613924237
-0.9246598987382604 -0.1020640436855482 0.3668610127172193
-0.9138988958776829 -0.1824799161320657 0.3626153448517941
-0.8984570848694764 -0.2603600420298541 0.3535357339252349
-0.8790327046419415 -0.3346786777297598 0.3395462955812242
-0.8564388174224108 -0.4046775144700182 0.3205443203278915
-0.8315066974746352 -0.4698883578029501 0.2963132519076245
-0.8050037577797218 -0.5300847889452668 0.2664189679609517
-0.7775675767069686 -0.585175415495327 0.2301269144492304
-0.7496465994503084 -0.6350617950692198 0.1863504557978018
-0.7214270343996613 -0.6794732864599908 0.1336378951666356
-0.6927262489350511 -0.7177765668694935 0.07019361858044082
-0.6628300547455795 -0.7487451129910375 -0.006088866726235004
-0.6302878961841337 -0.7702153430602352 -0.09749611909395134
-0.5925588928594803 -0.7787913275803094 -0.2058106571070739
-0.5436450450629622 -0.7710653334300981 -0.3315242322377367
-0.4579296947182441 -0.7507963264650642 -0.476030745710631
0 0 0
0 0 0
0 0 0
0 0 0
0 0 0
-0.3880694963380308 0.678151147899216 -0.6241098353774934
-0.4657490233037951 0.7435105916454542 -0.4798644052256708
-0.5273639033565035 0.7782570621377995 -0.3408859907201129
-0.5717316657548731 0.7907526940587033 -0.2187077484042572
-0.6070483568295729 0.7864373163647537 -0.1140554246825611
-0.6379705299826149 0.769638763849423 -0.0254907052478518
-0.6668695220222091 0.743546577348692 0.04922933993986772
-0.6949586957373474 0.710190921170725 0.1125222942608335
-0.7227844883770855 0.670697737999685 0.1665746907653741
-0.7504626921150671 0.62557880287 0.2132062596246715
-0.7778091508507395 0.5749564070892308 0.2538465181953323
-0.8044112947666471 0.5187383758879421 0.2895392309048737
-0.8296660403206011 0.4567717189373539 0.3209577204520075
-0.8528074865389387 0.3889875686301681 0.3484365973234265
-0.87294626151606 0.3155351988463115 0.3720246803562264
-0.889136764696055 0.2368865926572565 0.3915616884796909
-0.9004772639578885 0.1538909445496426 0.4067656257361643
-0.9062302860589425 0.06776585322772348 0.4173181732992766
-0.9059393794801197 -0.01997649331414781 0.4229359058084863
-0.8995115829303486 -0.107659518038279 0.4234245391447021
-0.8872429773430378 -0.193607340745808 0.4187076507120423
-0.8697775060975681 -0.2763124816001272 0.4088257604391798
-0.8480122830428835 -0.3545715826768164 0.3938961291590123
-0.8229743133203398 -0.4275616968339188 0.3740377989126427
-0.7957012548788082 -0.4948435784434701 0.3492697322379236
-0.7671444939145182 -0.556298139663187 0.3194083675546308
-0.7380998363563989 -0.6120173084230183 0.2839778966069374
-0.7091500954804688 -0.6621730436139684 0.2421425249539096
-0.6806019137766099 -0.7068714483817465 0.1926493976795858
-0.6523900231026474 -0.7459825029355344 0.133781026570146
-0.6239275279704333 -0.7789126376554367 0.06332095025624498
-0.5938577278964225 -0.8042858341408351 -0.02138448077647241
-0.5595840042000595 -0.8195787781286561 -0.1231112045451845
-0.5162698582240195 -0.820879745738023 -0.2441759130758575
-0.4558544858306609 -0.8024679863797293 -0.3850218416969686
-0.37947713978688 -0.7545044680001064 -0.5354625179665186
0 0 0
0 0 0
0 0 0
0 0 0
-0.4222446525384501 0.7214853983422427 -0.5487880040431078
-0.4608737834210286 0.7901871772809219 -0.4039796784690972
-0.5024896426796175 0.8217048869937857 -0.2688963326083854
-0.5383398934594656 0.829002097383765 -0.1514783207042149
-0.5694981057039623 0.8203297236292523 -0.05225946928502186
-0.5981248935485112 0.8008044322851247 0.03096567373852202
-0.6257695340968576 0.7734308854056444 0.1010799470559903
-0.6533223415399407 0.7397996348568658 0.1608304023200099
-0.6811860540235226 0.700583900473974 0.2125270763938913
-0.7094085804324408 0.6558864045672247 0.257977693440164
-0.7377617370270882 0.6054736652448131 0.2985117419362008
-0.7657805060308768 0.548946835847231 0.3350187875275157
-0.7927796995316232 0.485889155311298 0.3679837995909898
-0.8178676524258828 0.4160150246846557 0.3975223293753445
-0.8399792071692174 0.3393232481804426 0.4234320072545837
-0.8579491460507159 0.2562382640701793 0.445269822486487
-0.8706354679554134 0.1677059046736332 0.4624593079133083
-0.8770827843155086 0.07520742297795387 0.4744150429596107
-0.8766902469416494 -0.01933445972694905 0.4806666096001012
-0.8693353659863886 -0.1137540352950014 0.4809532626975459
-0.8554086560049191 -0.2059038272532383 0.4752679719424883
-0.835747706148634 -0.2939093042477837 0.4638351997680638
-0.8114936538424036 -0.3763524647942347 0.4470311756654214
-0.7839199850454808 -0.4523500407677337 0.4252633274380968
-0.7542766428698208 -0.5215294230985472 0.3988405782559355
-0.7236776180001164 -0.5839303531642939 0.367853296653843
-0.6930298812486972 -0.639870023677623 0.3320782084015966
-0.6629911155245258 -0.6897975969805893 0.2908987039079908
-0.6339295708751456 -0.7341464461053958 0.2432330052457319
-0.605867153508285 -0.7731657479030724 0.1874559110010942
-0.5783808695042291 -0.8066936693660636 0.1213296896734155
-0.5504502167091581 -0.8338109784366879 0.04199775188380019
-0.5202667271971688 -0.8523061338670321 -0.05382180547119093
-0.4852804453719554 -0.8578339196890052 -0.1691858610244751
-0.4439172740864197 -0.8425302185188822 -0.3050906171126972
-0.4044499320804177 -0.7926639412058405 -0.4561843144521396
0 0 0
0 0 0
0 0 0
-0.3079008086110517 0.7090756948139169 -0.6343569587234157
-0.3897759372940123 0.785107434846226 -0.4813325611837957
-0.4342269830893012 0.8355301263028057 -0.3366546230153106
-0.4688875405989304 0.8587700111731448 -0.2065394446123125
-0.4988916431526059 0.8614719267518145 -0.09472722845628111
-0.52638858048301 0.8502437889955516 -0.0007494074785104673
-0.5528498698333593 0.82962198393414 0.07800246918154692
-0.5792620297125025 0.8022053753750109 0.1446445182258526
-0.6062064941569739 0.7692173201246006 0.2020356425540741
-0.6339441838366103 0.7309935026234939 0.2525139023934511
-0.6624738929118326 0.6873199488142148 0.2978584045687922
-0.6915581272088379 0.6376571193985724 0.3393239672815918
-0.7207232796934246 0.5813026990185353 0.377683897223219
-0.7492453615599187 0.5175408729660044 0.4132587966281322
-0.7761387870765835 0.4458078317030278 0.4459416558110873
-0.8001734039782685 0.3658844692800309 0.4752379180005525
-0.8199477944300858 0.2780973439484949 0.5003473610383385
-0.8340394370292051 0.1834810969571648 0.5203007827587821
-0.8412241781884994 0.08383264684583967 0.5341478909009224
-0.8407188071726159 -0.01840322347468106 0.5411591342959982
-0.8323643737488869 -0.1204271029352123 0.5409869334764512
-0.8166760225828946 -0.219485120962065 0.5337289160373931
-0.794736218784232 -0.3132481977272173 0.5198748976178701
-0.767981396914046 -0.4000583481067351 0.500157867182013
-0.7379607814159518 -0.4790011684003615 0.4753648764507591
-0.70613821965669 -0.5498316223191452 0.4461546837566275
-0.6737637382984022 -0.6128153797129108 0.4129161359664728
-0.6418136350622475 -0.6685434464690521 0.3756659660276204
-0.6109708057971097 -0.717756688662506 0.33397606253123
-0.5816216723855738 -0.7611845913740534 0.2869045974991041
-0.5538405557169713 -0.7993796048269828 0.2329224897466382
-0.5273480199978683 -0.8325016697652947 0.1698382631868433
-0.5014263417700419 -0.8599935832021078 0.09477689924402383
-0.4748047655102627 -0.8800804524861353 0.004339562252428365
-0.4455598037139537 -0.8890995220927838 -0.1047783428422393
-0.4109958110881325 -0.8810200424125725 -0.2342778865692543
-0.3658262269996734 -0.8487043638769669 -0.3819320284754548
-0.2847490767637419 -0.7909794748039476 -0.5415435658569562
0 0 0
0 0 0
-0.3433449571218194 0.7418344604781322 -0.5760172511879603
-0.3730683390313327 0.825887525550937 -0.4227644847332287
-0.4025582892878475 0.8716632371666629 -0.2795532591435388
-0.4292965915833708 0.8899559062811828 -0.1538925642457697
-0.4542258329222539 0.8896326557839714 -0.04725071924152999
-0.4784130442241831 0.8771253258465264 0.04209657794612192
-0.5026932202379464 0.8564818276730309 0.1172109431438352
-0.527642843657165 0.8298861093179876 0.1813341531494641
-0.5536130229775642 0.7982375113447651 0.2373383581972337
-0.5807627410367378 0.7615991875691821 0.2875435899432571
-0.6090706827842813 0.7194982321154318 0.333699261844339
-0.6383224564735978 0.6711208160011944 0.3770163018907831
-0.6680763072748797 0.615458906867419 0.4181918000338144
-0.6976154264480133 0.5514573557596228 0.457413928034948
-0.7259036018683024 0.4782016284567803 0.4943553007057858
-0.7515733927786296 0.3951636742666961 0.5281885135131806
-0.772987928755172 0.302491579517623 0.5576634346267665
-0.7884131930053562 0.2012757427093476 0.5812853967647035
-0.7963066293712777 0.09367810186202424 0.5975953189666752
-0.7956601954944081 -0.01719702553787651 0.6054990632680199
-0.7862722138194144 -0.1277288358035787 0.6045339943127921
-0.7688163857332546 -0.2343877340297441 0.594965339464793
-0.7446757886083416 -0.3342945100665133 0.5776721824702431
-0.715626898402518 -0.4255442694483833 0.5538864658234873
-0.6835113768199254 -0.5072502327325965 0.5248898924064511
-0.6499893345108056 -0.5793828482048915 0.4917615074690038
-0.616408092808166 -0.6425161277679492 0.4552077423316512
-0.5837625328574469 -0.6975717331573554 0.4154695925476385
-0.5527130619365302 -0.7456025859442066 0.3722701371290162
-0.5236189151814606 -0.7876198699682703 0.3247740323599693
-0.4965654587584686 -0.8244344122207335 0.2715338747085616
-0.4713619630816728 -0.8564678535745927 0.210429835225714
-0.4475063991920021 -0.8834693410191766 0.1386360204324603
-0.4241150243913051 -0.9040727838642812 0.05271477555155436
-0.3998604722576443 -0.9151573087342 -0.05097747538147401
-0.3730316133030269 -0.911106282992166 -0.175307605564446
-0.3421489719039648 -0.883246172696405 -0.3206404207866055
-0.3100821471285333 -0.8194345038093355 -0.482054100697117
0 0 0
0 0 0
-0.329832676373936 0.7861790072870567 -0.5226212530094271
-0.343670100753702 0.8631429640579077 -0.3699663301508251
-0.3632691481667946 0.9027481102419452 -0.2303939570491537
-0.3838801655487403 0.9168517105505263 -0.1096310145845834
-0.4046737285015498 0.914427870152532 -0.007800240314068996
-0.4258794208138582 0.9014486946910918 0.07756912895591153
-0.4478815627036913 0.8814533470622784 0.149806884831123
-0.4709957956550405 0.8562338705279975 0.2121945320594265
-0.4954349506207871 0.8264059959037188 0.2675767920387718
-0.5213075890936989 0.7918068452188889 0.3182456871943832
-0.5486051962577341 0.7517448644554932 0.3659398822263091
-0.5771673214704129 0.7051565439311164 0.411864214975994
-0.606623430243144 0.6507253211976851 0.4566887016691025
-0.6363156523424992 0.5870189147241827 0.5005109232973658
-0.6652170370648912 0.5126937349710573 0.5427996202283436
-0.6918791169021558 0.4268033168841652 0.5823591815120351
-0.7144638933648864 0.3292038259823086 0.6173865774670658
-0.730925451633 0.2209759492246285 0.6456915780923338
-0.739370319302864 0.1046838095914768 0.6651111417976664
-0.7385302805127045 -0.01574804127443612 0.6740363669430931
-0.7281551227540195 -0.1356450303113941 0.671856043329893
-0.7091105351718469 -0.250499788573509 0.6590994650528275
-0.6831229821099857 -0.3567894956957958 0.6372160128828365
-0.6523300538420203 -0.4523847604175673 0.6081229558209479
-0.6188470184020416 -0.5365218635113977 0.573735703777584
-0.5844825459160568 -0.6094998233410339 0.5356212457200819
-0.5506174487818218 -0.6722948044456178 0.4948132183081063
-0.5182055901411174 -0.7262155729439648 0.4517454017033981
-0.4878317926410863 -0.772647283205082 0.4062466219482804
-0.4597861360158632 -0.8128717290718915 0.3575419712471176
-0.4341193772017262 -0.8479273690250112 0.304235999178774
-0.4106713405931869 -0.8784537016266936 0.2442706370273638
-0.3890599873935317 -0.9044590940076428 0.1748887459964708
-0.3686485298301025 -0.9249379346150537 0.09267188658995656
-0.348540563109616 -0.9372731765368298 -0.006202290850314623
-0.3278105329266306 -0.9364041120665954 -0.1252501233816912
-0.3065881571249143 -0.9138648256669037 -0.2661856162897381
-0.2897065507126116 -0.8570077208688525 -0.4261547616129324
0 0 0
0 0 0
-0.2843633130355536 0.8314653940981654 -0.477286920642736
-0.2980682928743961 0.8974924882130014 -0.325057727771819
-0.315088094900712 0.9299611609780212 -0.189451132285479
-0.3325959522212206 0.9402149303744259 -0.07331996499639128
-0.3504619318346038 0.9362601733811319 0.02435820344544314
-0.3690193692780608 0.9232985016232813 0.1065109477839016
-0.3885866716421868 0.9043300623257953 0.1765999348693812
-0.4093991415690625 0.8807909331864683 0.2379068618157625
-0.4316212405623366 0.8530583985941376 0.2932481428473753
-0.4553559354897077 0.8207858230670451 0.3449081104677675
-0.4806318177931939 0.7831004693047359 0.3946475778457429
-0.5073635683290381 0.738715461259854 0.4437135076015447
-0.5352835541514351 0.68601338709728 0.4928053869209674
-0.5638445366724156 0.6231597182641724 0.541988287694103
-0.5921041722319988 0.5483134605294451 0.5905632889264992
-0.6186243906286205 0.4599942242479369 0.6369530414229184
-0.6414549905887689 0.3576277673149785 0.6787030831623392
-0.65829795668522 0.2421808777180216 0.712735731314063
-0.6669272195300605 0.116631387672803 0.7359383148467119
-0.6658056366489854 -0.01410628159713101 0.74599186793553
-0.6546349024088723 -0.1440361730814567 0.7420961699080342
-0.6344878241339708 -0.2674541383741502 0.7251851383559096
-0.607437296356487 -0.3801215259641094 0.6975152733050637
-0.5759427511035137 -0.4797504316150387 0.6619134919432444
-0.5423172251389621 -0.5658313646386441 0.621069154047072
-0.508423111414637 -0.6391207296099896 0.5770880632643977
-0.4755890099878898 -0.7010856348435919 0.5313134914480301
-0.4446584711864766 -0.753465913016899 0.4843221674915522
-0.4160952519999665 -0.7979849868545804 0.4359870434058549
-0.390084727922712 -0.8361781353362309 0.3855386245593127
-0.3666117232748901 -0.8692789138252087 0.3315871142494533
-0.345495716746731 -0.8981045252769257 0.2721047066604511
-0.3263879625365174 -0.9228738821583627 0.2043885895572756
-0.3087276366871768 -0.9428919251045331 0.125068237047692
-0.2916967050318692 -0.9560316043735814 0.03027546386805533
-0.2742918392754449 -0.9579867776588165 -0.08381718641048481
-0.2559710261575397 -0.9413508762116416 -0.2198575939635244
-0.239581666902103 -0.8944111219563408 -0.3776630373828089
0 0 0
-0.1150685383784433 0.7866516989430323 -0.6065792083689392
-0.2052886029423347 0.8729238309193766 -0.4425613798277288
-0.2399907472210737 0.9261936695503338 -0.2908087476902254
-0.2603239893852797 0.9525136328095966 -0.157953157177681
-0.2767178838902599 0.959890352445805 -0.04514115657317643
-0.2923273221839352 0.9550343900692377 0.04953837391202944
-0.3083006254174055 0.9424454687405323 0.1294112159655195
-0.3251348996840865 0.9246900056700539 0.1980800101507823
-0.3430868900226201 0.9029307113685281 0.258858100823848