# OOMMF: rectangular mesh v1.0
# Segment count: 1
# Begin: Segment
# Begin: Header
# Title: 
# Desc: time = 6e-11
# Desc: stepsize = 7.04004268094968e-14
# Desc: step = 382
# meshunit: m
# valueunit: (none)
# valuemultiplier: 384000.0000000001
# xmin: 0
# ymin: 0
# zmin: 0
# xmax: 9.357999999999999e-08
# ymax: 9.357999999999999e-08
# zmax: 2.3395e-08
# ValueRangeMaxMag: 1
# ValueRangeMinMag: 0
# meshtype: rectangular
# xbase: 1.16975e-09
# ybase: 1.16975e-09
# zbase: 1.16975e-09
# xstepsize: 2.3395e-09
# ystepsize: 2.3395e-09
# zstepsize: 2.3395e-09
# xnodes: 40
# ynodes: 40
# znodes: 10
# End: Header
# Begin: Data Text
0 0 0
0 0 0
0 0 0
0 0 0
0 0 0
0 0 0
0 0 0
0 0 0
0 0 0
0 0 0
0 0 0
0 0 0
0 0 0
0 0 0
0 0 0
0 0 0
-0.8491110832944709 0.09696698243931388 -0.5192376840552918
-0.8629109262359356 0.1107950207304416 -0.4930610477050281
-0.8785818160555051 0.08624459425487632 -0.4697402074108853
-0.8895435950340537 0.04533730831895225 -0.4545951176687699
-0.8936225120118597 -0.0008337885141771116 -0.4488185722787402
-0.890648492304992 -0.0437530554137177 -0.4525825154563619
-0.8822926627646225 -0.07240640622487611 -0.4650988814965155
-0.8739086758529625 -0.06489430160709392 -0.4817388876641043
0 0 0
0 0 0
0 0 0
0 0 0
0 0 0
0 0 0
0 0 0
0 0 0
0 0 0
0 0 0
0 0 0
0 0 0
0 0 0
0 0 0
0 0 0
0 0 0
0 0 0
0 0 0
0 0 0
0 0 0
0 0 0
0 0 0
0 0 0
0 0 0
0 0 0
0 0 0
0 0 0
0 0 0
-0.7579673596845281 0.3132535137219979 -0.5721518310673195
-0.7901819557104512 0.3424240132820979 -0.5082895552707998
-0.8333093839081751 0.3238553915535406 -0.4480102186918062
-0.8769757619454404 0.2736038547325665 -0.3950372686667603
-0.9170791231624545 0.189068816369148 -0.3510254471350363
-0.9356526395032253 0.144247811103552 -0.3220973566834733
-0.9487491752675539 0.1001886548861557 -0.2997286036754556
-0.9572008194222571 0.05140529557906543 -0.2848229044227092
-0.9604650997256063 4.227849272354594e-05 -0.2784004138316057
-0.9584944704762195 -0.05047870299749607 -0.2806069325768725
-0.9517848698669987 -0.09794318380808395 -0.2907106710077828
-0.9398739435391047 -0.1474151993483284 -0.3080677348528137
-0.9098496497582457 -0.235770976799842 -0.3414464252758334
-0.8746814094477566 -0.2938299125833889 -0.3854820546247559
-0.8386900437734849 -0.3232427952263666 -0.4383070907588364
-0.8112419845102278 -0.3078456706718075 -0.497109128478377
0 0 0
0 0 0
0 0 0
0 0 0
0 0 0
0 0 0
0 0 0
0 0 0
0 0 0
0 0 0
0 0 0
0 0 0
0 0 0
0 0 0
0 0 0
0 0 0
0 0 0
0 0 0
0 0 0
0 0 0
0 0 0
0 0 0
-0.7128636006328856 0.4031143365618775 -0.5738678580919081
-0.7552311765519044 0.4333019660676051 -0.4918081700886774
-0.8181313404129457 0.3975206739033995 -0.4154978022246367
-0.8577259071593254 0.3765630644194873 -0.3500093237368352
-0.8935003581850116 0.3424894847394896 -0.290444595002445
-0.9262275597046233 0.2918704253468165 -0.2385668930331404
-0.9535043386992283 0.2280519464369255 -0.1970324486171663
-0.9709698048108066 0.1706886648465558 -0.1675798849461469
-0.9825472443201885 0.1150922270847218 -0.1461324465800866
-0.9895458609400684 0.05838922320085439 -0.1318699651565086
-0.9921569356420453 0.0005063618995407031 -0.1249974345937247
-0.9903979578163294 -0.05770197689099277 -0.1256278910756472
-0.9841695173112417 -0.116259435351507 -0.1337688487171269
-0.972484036897971 -0.1778934087079338 -0.1504284983535277
-0.9521433301310028 -0.247102525575585 -0.17989836225272
-0.9262486758606693 -0.3053033285392125 -0.2210277540247687
-0.8969380840982959 -0.3492005789268114 -0.2712213652558684
-0.8636638601792385 -0.3819293976699179 -0.3289599851285712
-0.8099389441989686 -0.4293945725240966 -0.3995237261499091
-0.7726229616449675 -0.415911526040245 -0.4796575462200435
0 0 0
0 0 0
0 0 0
0 0 0
0 0 0
0 0 0
0 0 0
0 0 0
0 0 0
0 0 0
0 0 0
0 0 0
0 0 0
0 0 0
0 0 0
0 0 0
0 0 0
0 0 0
0 0 0
-0.7070378112690425 0.4798391869775157 -0.5194727019552018
-0.7643071546165044 0.4829305567764134 -0.427332014636916
-0.8093852583025347 0.4756508631656131 -0.3444586477537555
-0.8533257701060695 0.4461683926146068 -0.2697571046415297
-0.8882626678653637 0.4106766185283984 -0.2057526375791721
-0.9181815952743303 0.3667266346784449 -0.1498470337274236
-0.9441984355557542 0.3131560867632145 -0.1020910359297791
-0.9655847257134914 0.2521636414301381 -0.06371526826038999
-0.9811377142677138 0.190092255157988 -0.03512435295454749
-0.9917022604439747 0.1277458727509261 -0.0144089772508108
-0.9979074545754287 0.06465613914308868 -0.0005438509884422207
-0.9999772825680189 0.0007649231319083833 0.006696957554153823
-0.997943575948636 -0.063691405761946 0.007212770266354005
-0.9916778429732624 -0.1287428131712582 0.0005863553934902243
-0.9807329670789793 -0.1948229465381688 -0.01438286434083392
-0.9644691598697418 -0.2611784804483102 -0.03981257352728321
-0.9437875944916889 -0.321778008772626 -0.07565639136196453
-0.9192994260782933 -0.3745480030174065 -0.120840219495799
-0.8900699832700691 -0.4206853418048583 -0.1754972024624538
-0.8527231558781039 -0.4625944455180026 -0.2426305801113657
-0.8136563800432064 -0.4848829295586348 -0.3207052226541078
-0.7637692425734873 -0.4973272349795991 -0.4114877464108345
0 0 0
0 0 0
0 0 0
0 0 0
0 0 0
0 0 0
0 0 0
0 0 0
0 0 0
0 0 0
0 0 0
0 0 0
0 0 0
0 0 0
0 0 0
0 0 0
-0.5835962521006854 0.559560554970261 -0.5884788864992575
-0.6402109166028219 0.5999398629267298 -0.4797938548314584
-0.7294102743915625 0.5700613079365068 -0.3781411863388383
-0.7852970268943748 0.5476757350225798 -0.2887210917448393
-0.8272651872453366 0.5210981117106623 -0.2099739696808142
-0.8632288257017013 0.4848174545348052 -0.1406699337316015
-0.8936111800340875 0.4414639700734135 -0.0810470360044421
-0.9197968925970852 0.3912656791597605 -0.02974633894106736
-0.9423889387485155 0.3342380817730334 0.01371104726594192
-0.9611460753132302 0.2716454740430475 0.04906076173380968
-0.9755564724244479 0.2060610000019101 0.0763441771779596
-0.9856087050437428 0.1387998497776304 0.0964887674483558
-0.9914128538522989 0.07035097297385659 0.1102329071469643
-0.9930311920006605 0.001051120021566187 0.1178471334417901
-0.9904862965303924 -0.0687286200159036 0.1192194328799478
-0.9837775173702822 -0.1386232119053252 0.11386571669214
-0.9728914466185252 -0.208113907799267 0.1008505551647126
-0.9579298447279452 -0.2759023263155783 0.07904630866236886
-0.9393713495470789 -0.3394994161031662 0.0481831310284834
-0.9174719987552016 -0.3977118912666032 0.008389460368578601
-0.8917743034678494 -0.4506248380048396 -0.04093711088417638
-0.8611279074742769 -0.4981729574090357 -0.1014023248022813
-0.8250238319078017 -0.5378841766805486 -0.1732520974212296
-0.776621500455983 -0.5746693618772323 -0.2580972094950108
-0.6990914540210583 -0.6188701198100018 -0.3581492897118124
-0.6480940032538214 -0.5994103301007865 -0.4697674095921315
0 0 0
0 0 0
0 0 0
0 0 0
0 0 0
0 0 0
0 0 0
0 0 0
0 0 0
0 0 0
0 0 0
0 0 0
0 0 0
-0.5553589735266207 0.5979869161989781 -0.5779169997311843
-0.6245889421379035 0.6285340342518483 -0.4635014791197006
-0.6813900310364329 0.6401150407622169 -0.3549089463427964
-0.7394531098632079 0.6230769966846627 -0.25491989823482
-0.7854786559909297 0.595436784995368 -0.1687551956446429
-0.8226569160700218 0.5605840175023602 -0.09476897046541113
-0.8544670759514801 0.5185849251049478 -0.03091426157653549
-0.8822220071464103 0.4702224352708215 0.02398314980432415
-0.9066638926772177 0.4158144164130239 0.07112634405401708
-0.9280091693088326 0.3555835218347886 0.1111725716096286
-0.9460063241441504 0.2902735003981273 0.1442682558496164
-0.9601980892039116 0.221203951641985 0.1705533384813293
-0.970242260842555 0.1495204001136244 0.1904563079159844
-0.9759345800285598 0.07606718199565111 0.2043660425014839
-0.977176891661962 0.001560515022396215 0.2124214847766829
-0.9739748245138971 -0.07328844603948885 0.2144804067746972
-0.9664493521432845 -0.1477171968406417 0.2101315766356115
-0.9548521157449237 -0.2208107170270159 0.1987462309163553
-0.9395857215238886 -0.2913588411112809 0.1796905607279473
-0.9211570778147287 -0.3580001018731545 0.152661603065867
-0.8999045440561525 -0.4199789250246748 0.1174287619035739
-0.875769044699821 -0.4771337067162914 0.07329397151699575
-0.8482162997859135 -0.5293100736297222 0.01897247299618009
-0.8161294241059016 -0.5759628845126147 -0.04689902741504742
-0.7764770196042158 -0.6172887056444911 -0.1266415883914235
-0.7262498580876127 -0.6504139229419466 -0.2225373507323862
-0.6760234952260491 -0.6585582465361688 -0.330595326375861
-0.6141788279531821 -0.6490438398585063 -0.4489169870207412
0 0 0
0 0 0
0 0 0
0 0 0
0 0 0
0 0 0
0 0 0
0 0 0
0 0 0
0 0 0
0 0 0
-0.5058388912176001 0.6343445863445316 -0.5845801586669988
-0.580791838395024 0.6703082770498607 -0.461917367255416
-0.6393325723929876 0.6864077163229924 -0.3465520290657939
-0.6879524483633489 0.6843960710218935 -0.2415024777526481
-0.7320940753010311 0.6649634968405425 -0.147857406911948
-0.7702618070039768 0.6341704428075899 -0.06726513316862645
-0.8033994253643489 0.5954383187153334 0.001603723695189167
-0.8329146078361878 0.5500545398114665 0.06077219171532828
-0.8595878223054885 0.4985993964828785 0.1118365663413196
-0.8837093954036629 0.441274690331744 0.1559947183333949
-0.9051709654470025 0.3782308932673095 0.1939250233723172
-0.9235477692602543 0.3099122556328691 0.2258625947405953
-0.9382521860491499 0.2371543168037172 0.2518743047540829
-0.9487234646978467 0.16096331151346 0.2720562439613064
-0.9545389997181566 0.08237951677507127 0.2864767237193384
-0.9554666808201041 0.002466184925564602 0.2950886981477359
-0.9514937246329932 -0.07767490018159583 0.2977016994674567
-0.9428379333133062 -0.1569033238014658 0.2940033647520809
-0.9299365447658484 -0.2340454824699283 0.2836207588389343
-0.9133972663840442 -0.3079378217281765 0.2662324768157719
-0.8938860671377807 -0.3775956618509884 0.2416386043832075
-0.8719502427631799 -0.4424716066850357 0.2095749303299269
-0.8478731112784209 -0.5024064734725234 0.1694075635382096
-0.821575816396649 -0.5573269741343787 0.1199992575576895
-0.7924936735271372 -0.6069451340431971 0.05976103814985321
-0.7594158973302324 -0.6504663807904989 -0.01345296782970061
-0.7212905815895589 -0.6851657503668135 -0.1014287505319704
-0.6787893598221795 -0.7055945608801678 -0.2034239923128985
-0.6267924204288324 -0.7107175180495209 -0.3193929730449526
-0.5596470367652265 -0.6973355895378825 -0.44779266385656
0 0 0
0 0 0
0 0 0
0 0 0
0 0 0
0 0 0
0 0 0
0 0 0
0 0 0
-0.4574364972024361 0.6475058250546631 -0.6094982014308531
-0.528506393975499 0.7007507054488691 -0.4791966614448874
-0.5861404827058033 0.7282820634059199 -0.3550275632322407
-0.6335098138844499 0.7346991525743551 -0.2426571056421251
-0.6739520594408406 0.7247223563126299 -0.1434089531239889
-0.7103126758880205 0.7015897392698409 -0.05681320466296613
-0.7433755611121433 0.668638898448365 0.01774256528696533
-0.7737984659198114 0.628121445638895 0.08184976278921119
-0.8021575359669912 0.5810929572389036 0.137383632717693
-0.8287107900663713 0.5279010203218496 0.185900347419579
-0.8533732530287377 0.4685604192071437 0.2284846265453652
-0.8757498541016775 0.4030638449589831 0.2657098604263127
-0.8951951286392126 0.3316491898272879 0.2977154623924099
-0.9109234701730474 0.2549341170486399 0.3243871567317713
-0.9221608384951308 0.1738856079181693 0.3455187162873892
-0.9282876764813945 0.08973768211066768 0.3608727450254144
-0.9289465266454211 0.003915061480361295 0.3701932237724136
-0.9241056160924921 -0.08204919379077232 0.3732247849548571
-0.9140733876804167 -0.1666108152550392 0.3697440711823482
-0.8994574669844451 -0.2483234044785246 0.359599432527528
-0.8810697734679077 -0.3259587806822297 0.3427344855385335
-0.8597855127714571 -0.3986409161750597 0.3191461921744184
-0.8363919664785264 -0.4659307897941584 0.2887160846436769
-0.8114698156044042 -0.5277466690590769 0.250998389755797
-0.7853135615654184 -0.5841431627215822 0.205083825464283
-0.7578621677042161 -0.6350386999051801 0.1495686611072134
-0.7286688701452391 -0.6798658741199183 0.08260793477880647
-0.6970182921888241 -0.717049410895173 0.002375434499095254
-0.6618303975478501 -0.7439442930237936 -0.092343996875714
-0.6201492123983979 -0.7577707169054652 -0.2029741238735208
-0.5685703114442917 -0.7536871563247064 -0.3296717630239477
-0.5042189618248464 -0.7254783093767196 -0.468448995260071
0 0 0
0 0 0
0 0 0
0 0 0
0 0 0
0 0 0
0 0 0
0 0 0
-0.4936820339128329 0.7023672788254754 -0.5127945544045728
-0.5320925464714101 0.756467584708377 -0.3803081846017043
-0.5740458689552188 0.7766824312427612 -0.2592985563675213
-0.6119479869208422 0.7760038287326173 -0.1527668782683166
-0.645938275090685 0.7610009750984067 -0.06034285933019681
-0.6774137236191756 0.7353416285036261 0.01957897959643361
-0.707270850552273 0.7013514642568347 0.08873594279578667
-0.7360167105932681 0.6603648225443792 0.1489889354059391
-0.7638763306121673 0.612905583320565 0.2020883407447542
-0.7907896609162239 0.5589681213135508 0.2494120116257477
-0.8164061665901509 0.4983019002636065 0.2918495971339566
-0.8400949456846866 0.4306812612297876 0.3297789160340039
-0.8609850758066325 0.3561495238547663 0.3631283738518237
-0.878059005670527 0.2751934498933225 0.3915111080118879
-0.8903022579229138 0.1888087464984992 0.4143828504933887
-0.8968802231742042 0.09847006806936506 0.4311722520912071
-0.8972982434576694 0.006021633545376983 0.4413837357869287
-0.8915055215366985 -0.08649709050115045 0.4446753404501021
-0.879912877825445 -0.1770666317367671 0.4409089876180106
-0.8633204694391067 -0.2639003734911212 0.4301562040918237
-0.8427733075423158 -0.3456190004139733 0.4126507708062961
-0.8193870682689738 -0.421354471925914 0.3886711223407385
-0.794187764798639 -0.4907552318983319 0.3583644745347331
-0.76800129965372 -0.5538695276250436 0.3215626690065366
-0.7413859191182718 -0.610944961315982 0.2776565741627018
-0.714589782166455 -0.662187738141798 0.2255412216823061
-0.6875125911633275 -0.7074937845906477 0.1636428481709137
-0.6596574293203342 -0.7461497804224817 0.09006986798019546
-0.6299983668903905 -0.7765916117672902 0.002743400831589446
-0.5969093178174681 -0.7959627496724639 -0.1007103144495857
-0.559740944295491 -0.7983488022917702 -0.2221019251570939
-0.5249491809842884 -0.7708298104161749 -0.3609013172013759
0 0 0
0 0 0
0 0 0
0 0 0
0 0 0
0 0 0
0 0 0
-0.3631484596843401 0.7471955727940996 -0.5566165396624395
-0.4558097592191264 0.786314970842391 -0.417068615493579
-0.5065167293672368 0.8122470522746233 -0.2893017956084999
-0.5448930057322817 0.8199401660155639 -0.1754700443335233
-0.5776122886857651 0.8127300440958067 -0.07638009808333465
-0.6073260670499925 0.7943998259898347 0.009163228083371264
-0.6355957522838636 0.7675183522713784 0.08326835296399931
-0.6633176506142373 0.733535293507486 0.1481069463681377
-0.690924877305217 0.6930578350703703 0.2056542028949124
-0.7185074769281306 0.6460761014453945 0.2575513089454053
-0.7458570040572128 0.5921805777929076 0.3049909716428606
-0.7724691846805527 0.5307885720990571 0.3486471718629101
-0.7975402113079662 0.4613856166087819 0.3886552767342521
-0.8199906284568846 0.3837785545243793 0.4246520815091583
-0.8385519485520081 0.2983227214418877 0.4558883453776104
-0.8519328270400252 0.2060715768289906 0.4813989649290943
-0.8590446332506074 0.1087984439418005 0.5002051745825621
-0.8592301559104373 0.008862847179934163 0.5115124525502678
-0.8524185841579223 -0.09107094999986212 0.5148675940941758
-0.8391496346132507 -0.1883944567299026 0.5102307511331439
-0.820456727645661 -0.2808945187404838 0.4979448035701598
-0.797659388264028 -0.3669824179549898 0.47860568866883
-0.7721344549815796 -0.4457764784290866 0.4528705275348136
-0.7451328577436112 -0.5170404144564098 0.4212436754772499
-0.7176645797844493 -0.5810177846095721 0.3838956692777272
-0.6904466977788056 -0.6382128592179874 0.3405403116448085
-0.6638765264609031 -0.6891659407989036 0.2903760728038162
-0.6380027800432898 -0.7342303780206249 0.2320737052074688
-0.6124538133600081 -0.7733482439672746 0.1638072649595135
-0.5863042358708349 -0.8057972217403503 0.08329574080016612
-0.5578773520097803 -0.8298358649520323 -0.01205393520256069
-0.5243811631266236 -0.8423411141533105 -0.124442127774031
-0.4795647744130866 -0.8397685789911412 -0.2545709348714497
-0.3979246267132876 -0.8246822508391523 -0.4019392697982612
0 0 0
0 0 0
0 0 0
0 0 0
0 0 0
-0.2830773012516421 0.7310764706010544 -0.620801446236711
-0.3638147489775561 0.7999384742239989 -0.4772182581194668
-0.426971814060409 0.8388321355249672 -0.3377213620850571
-0.4710795654108937 0.8558784511055151 -0.213438796814233
-0.5049707562984864 0.8566424393801613 -0.1056800186229202
-0.5338143215374547 0.8454998004106278 -0.01312850437386209
-0.5603734618290875 0.8255591215138102 0.06658618597749555
-0.5862024109129391 0.7986506587620681 0.1361023831487589
-0.6121646221756237 0.7655779025425757 0.1978508288966348
-0.6386689659660462 0.7263967603434496 0.2538694516368636
-0.665782316444674 0.6806334329540776 0.305731969304341
-0.6932645819983281 0.6274701387209104 0.3544932218819484
-0.7205565703091171 0.5659386035274752 0.4006391468912307
-0.7467523998819239 0.4951559907025748 0.4440511210907344
-0.7706000925582633 0.4146104283854238 0.4840182744724113
-0.7905786308233941 0.3244693811622289 0.5193313481522247
-0.8050870397363821 0.2258334637436061 0.548483459278467
-0.8127371949770529 0.1208324216933299 0.569962961751513
-0.8126754733026038 0.01246785672040315 0.5825831508387346
-0.8048116844531795 -0.09580454102390991 0.5857470806472987
-0.7898484527475671 -0.2006367105774844 0.5795552881830346
-0.7691031040625873 -0.2992927939279694 0.5647160692100786
-0.7442072814578388 -0.3899464036059359 0.5423074077863302
-0.7168082171560538 -0.4717285484468161 0.5134765392866735
-0.6883497197315418 -0.5445851741445351 0.4791676652774824
-0.6599610845050586 -0.6090315597832535 0.4399226365247456
-0.6324221341547039 -0.6658901644371442 0.3957682821261477
-0.6061677773523877 -0.7160530291197756 0.3461628015660536
-0.5812803976274876 -0.7602810317964667 0.2899756059128583
-0.5574436045097861 -0.7990108944221621 0.2254733207850387
-0.5338178200614563 -0.8321317454435276 0.1503173084177006
-0.508804178334696 -0.8586724599533627 0.06164344755766833
-0.4795597895945107 -0.876425405356213 -0.04359950745439061
-0.440974517572375 -0.8816573054827875 -0.1679936622037896
-0.3846553247023619 -0.8686763451173273 -0.3121565130054506
-0.311012020296445 -0.8277384612676902 -0.4670337921064378
0 0 0
0 0 0
0 0 0
0 0 0
-0.3145796078911847 0.7699762893002506 -0.5551361852864976
-0.3540908690702024 0.8418253054398952 -0.4073693797551988
-0.3954650355645788 0.8777366691745924 -0.2705286403178009
-0.4296659327399638 0.8902882722576297 -0.1509104983863646
-0.4580112711430566 0.8876099880518348 -0.04872560534813533
-0.4830291878962011 0.8747622540916484 0.03839013488949681
-0.5066343514276209 0.854654009965548 0.1135260199395815
-0.530069488485685 0.8286955700829529 0.1796941554458939
-0.5540842369207255 0.7972640837180935 0.239500812543768
-0.5790699406368133 0.760017568506681 0.2950445719074816
-0.6051229702385318 0.7161017677528801 0.3478856839694562
-0.6320482154403013 0.6643074290741843 0.3990121464762411
-0.6593153805338594 0.6032428768376865 0.448777517859444
-0.6859960896454084 0.5315729416320655 0.4968295207773394
-0.7107263867248719 0.4483585092500881 0.5420725508601649
-0.7317603360539495 0.3534759827995835 0.5827362526581631
-0.7471767727671983 0.2480232987702441 0.616612774360311
-0.7552509510515177 0.134532495487221 0.6414803259600083
-0.7549012217775567 0.01680227086304679 0.6556232371206776
-0.7460191302814345 -0.1007082954940876 0.6582653693403648
-0.7295075619231589 -0.2137267344981884 0.6497227101292279
-0.7070100314506885 -0.3189018635800606 0.6312197848873721
-0.6804905545221256 -0.4141723734232302 0.6044781636247399
-0.65184543101593 -0.4987524406158467 0.5712648571751915
-0.6226580398146897 -0.5728636266251171 0.5330330484538893
-0.5940981739771397 -0.6373798474039722 0.4907079475618023
-0.5669260627786522 -0.6934933823959106 0.4445916867366889
-0.5415313015420896 -0.7424550004203584 0.3943404896798388
-0.5179676271055076 -0.7853764787722497 0.3389591772794935
-0.4959395059863879 -0.8230635573397425 0.2767858142702142
-0.4747306512008498 -0.8558130962684349 0.2054622911043558
-0.453048939127335 -0.8831057914100053 0.1219459713713565
-0.4288231735340475 -0.9031035876329589 0.02268470508218587
-0.3992117963396168 -0.9118391208653466 -0.09580897308085194
-0.3622516566453497 -0.9018667378533649 -0.2353935521874566
-0.3254726579796073 -0.860032142428052 -0.3929532579051912
0 0 0
0 0 0
0 0 0
-0.1930589346951928 0.7445147998011079 -0.6390821235267601
-0.2779244300108862 0.8261651247573594 -0.4901114136987428
-0.3225842303693327 0.8814694420284145 -0.3448927907149411
-0.3556511786133624 0.9099574064263406 -0.2132832802654091
-0.3825295650516579 0.9185853688826926 -0.09935820014491051
-0.4056263600943089 0.9140354456991814 -0.002541653426426321
-0.4267214996906932 0.9008403990135673 0.07997085223256195
-0.4471284909399964 0.8815368816136868 0.1515547391028655
-0.4677634087200081 0.8572083974318231 0.2153860646258337
-0.4892366532856443 0.82793745527121 0.2741661307326175
-0.5119169962279969 0.793099183317333 0.3300525327796831
-0.5359519840572914 0.7515349690290564 0.3846435507213755
-0.5612377709844228 0.701675885194177 0.4389340685768242
-0.5873436432085258 0.6416863238950756 0.493220140007035
-0.6134066814512283 0.5697057345660421 0.5469621734211215
-0.6380435539603928 0.484246169935985 0.5986702516009291
-0.6593590269427868 0.3847559922038014 0.6459167903471227
-0.6751498118016025 0.2722360586172607 0.6856094077627577
-0.6833536501643821 0.1496449228274006 0.7145867238334309
-0.682645562848913 0.0217477871532009 0.7304259505772157
-0.6729044370170487 -0.1057412291347521 0.7321327824266853
-0.655256924344446 -0.2274231126129568 0.7203590014347643
-0.6316853285801139 -0.3392561172746255 0.6970501650156737
-0.604456258777428 -0.438990850749727 0.6647703845560702
-0.575648671393495 -0.5260307619157317 0.6260353381729009
-0.5468938043789654 -0.6009862034579306 0.5828574010726155
-0.5193140189914109 -0.6651701660715743 0.536527352375722
-0.4935707981339888 -0.720184968615135 0.4875668961385641
-0.4699543557932097 -0.7676316508439963 0.4357574464005283
-0.448450641440669 -0.808923311539413 0.3801777192834441
-0.4287705114440162 -0.8451397817858129 0.3192093321929426
-0.410315181528396 -0.8768609850331908 0.250512005169296
-0.3920888669987785 -0.9038918357716302 0.1710142380066817
-0.3725614621893009 -0.9248034438851064 0.07704899136014988
-0.3495539134432174 -0.9362588302099271 -0.03509222777867107
-0.3201066796453453 -0.9324204149660525 -0.1677017692243171
-0.2787024838517105 -0.9058388499510313 -0.3190311950488221
-0.2002808475604664 -0.853626621710016 -0.480842149575519
0 0 0
0 0 0
-0.2279768339478185 0.7728089574119559 -0.5922777038914886
-0.2584463180446772 0.8612358613741063 -0.4375823257083745
-0.2867433146700736 0.912042937526803 -0.2931824544537049
-0.3104521616996448 0.9359794367842906 -0.1660179183491307
-0.3307039014800374 0.941987617186658 -0.05739563235023323
-0.3487889925020591 0.9365630280429877 0.03458226731068189
-0.3657982609211919 0.9237835808189762 0.1132056894166601
-0.3825817473129715 0.9058168840244069 0.1820081845392319
-0.3997812391715362 0.8834762307573255 0.2442226658058154
-0.4178742239209385 0.8566324852890339 0.3025919994481117
-0.4372019544280112 0.8244599388267588 0.3593330771221928
-0.4579631933259381 0.7855653837574565 0.4161210657978144
-0.4801666157407661 0.7380639901687049 0.4740269692162132
-0.5035326987541557 0.6796845602934504 0.5333701526932821
-0.5273546696491247 0.6079955022427612 0.5934968590075558
-0.5503554494584438 0.520854656281696 0.652548317200397
-0.570632217893806 0.417130565340113 0.70737611166948
-0.5858232821106233 0.2975954106239208 0.7538222958447941
-0.5936046726663822 0.1656178433841279 0.7875304581674457
-0.5924391005921528 0.02709068747156548 0.8051596156923658
-0.5822011569211654 -0.1107564343263988 0.8054655952521859
-0.5642285252065092 -0.2412073919691867 0.7895981037228432
-0.5407791468512421 -0.3595027861938738 0.7604706838857656
-0.514311361473748 -0.4632986291389699 0.7216912107660519
-0.4869480609378652 -0.5523212954852597 0.6766260211537365
-0.4602425724822489 -0.627675611025306 0.6278535671627022
-0.4351684775153185 -0.6911740278844999 0.5769808136800697
-0.4122276913074442 -0.7448392206891543 0.524674056765252
-0.3915738092403575 -0.7905999888418112 0.4707670438341277
-0.373113575803734 -0.830118038370337 0.4143552846569402
-0.3565519152178078 -0.8646788587038471 0.353837820286533
-0.3413910831889286 -0.8950625425097583 0.2869062099625178
-0.3268714232817333 -0.9213226744500287 0.2105222130465569
-0.3118827472716683 -0.9423862623391469 0.1209846457560981
-0.29487380583224 -0.9554295620611372 0.01427552358665513
-0.2738864256468767 -0.9550963492220728 -0.1130362311342933
-0.2471061194285654 -0.9328556378182296 -0.2621429471332364
-0.2168718460636523 -0.8766250045590845 -0.4295290488043015
0 0 0
0 0 0
-0.213688893514933 0.8107739435783379 -0.5449611630224609
-0.2269502964135966 0.8923346280353925 -0.3901698022229779
-0.2439836236172981 0.9371878816374162 -0.2493007539470036
-0.2601452826211881 0.9571559110781227 -0.1271888116862101
-0.2747293022050268 0.9612309296898037 -0.02364128417860706
-0.2881323044131173 0.9554485199554995 0.06401484881206379
-0.3009313561191244 0.9434112492446296 0.1393396343578926
-0.3136486561793684 0.9269432600707834 0.2059143343388795
-0.3267189540238531 0.9066344552661435 0.2669619628445638
-0.3405058194302163 0.88220029992139 0.3252359416681456
-0.3553126400540781 0.8526769858470188 0.3830076835060144
-0.37137217973723 0.8164991179480727 0.4420541759866511
-0.388797291926445 0.7715258675906775 0.5035717440733887
-0.4074831688894195 0.7150927534031326 0.5679787153601467
-0.4269545669471848 0.6442054414979528 0.6345936864698299
-0.446186361540723 0.5560139417424631 0.7012604561523907
-0.4634804208420224 0.4486876623273962 0.764110778075586
-0.4765585763724473 0.3226231563892938 0.8178057362523664
-0.4830418273780356 0.1815318809070269 0.8565726876439874
-0.4812964107316547 0.03253411630535375 0.8759539350291518
-0.4712071715015236 -0.1154151967249016 0.8744387536531563
-0.4542288498631796 -0.2541689430463079 0.8538584779357146
-0.4327087912747281 -0.3782977498000388 0.8183238444832157
-0.4090645876095487 -0.485499495350139 0.7726295381219834
-0.3852538650237936 -0.575945728779827 0.7210173208630304
-0.3625948103326491 -0.6513044061883523 0.6665790080699117
-0.341824545098137 -0.713895994689636 0.6111534088381952
-0.3232431003476951 -0.7661379180862963 0.5554697008370525
-0.3068646193705844 -0.8102378217898528 0.499348352875806
-0.2925197232560075 -0.848052773427902 0.4418582408278381
-0.2799136569662486 -0.8810140981150058 0.3813954687281745
-0.2686258972733342 -0.9100447254976266 0.315687701547027
-0.2580757851514312 -0.9353861480565466 0.241763610045862
-0.2474552153385326 -0.9562642399371237 0.1559635207964822
-0.2357027537416787 -0.9703161207175086 0.05413721228798337
-0.2216926161428164 -0.9727603819954608 -0.06774675761834238
-0.2052410782028336 -0.9554119268611554 -0.2122831831059448
-0.1905496730767679 -0.9058747745543592 -0.3782614372579172
0 0 0
0 0 0
-0.1670444803164767 0.8483001898311462 -0.5024767950146942
-0.1794686587563395 0.9196066211080189 -0.3494490849014955
-0.1929097008879907 0.9577618099289715 -0.2132560966183285
-0.2047725726918978 0.9740662689196886 -0.0962449854590755
-0.2150645282312221 0.9765960544083122 0.002719413686394672
-0.2242564695288492 0.9706685971943664 0.08666896962106271
-0.2328064340869583 0.9593964051547405 0.1592472983252006
-0.2410855321290312 0.9442979608088421 0.2240069807178413
-0.2493981796626537 0.9257812914564383 0.2841294570617474
-0.258011446846997 0.9034492886720381 0.3423586950756569
-0.2671753450576936 0.8762458280765023 0.4010119496621345
-0.2771209528781459 0.8424907019021616 0.46196687617654
-0.2880295532851946 0.7998557561976302 0.526564094590438
-0.2999554478245282 0.7453646286218343 0.5953640060667265
-0.3126948012258504 0.6755361552212388 0.6677371221335771
-0.3256074926497466 0.5868580185614718 0.7413348951590283
-0.337456121327002 0.476775690178558 0.8116700730183999
-0.3464069806378677 0.34521099693101 0.8722565972024824
-0.3503982618683427 0.1960994763431156 0.9158417185614551
-0.3479432101906771 0.03775628759589077 0.9367550294656453
-0.3389527587184076 -0.1190982104736469 0.9332345062304302
-0.3247851635448938 -0.2649339683993868 0.9079232290944365
-0.3075253342205161 -0.3937974007822124 0.8662284779143044
-0.2892023588438657 -0.5035608407456594 0.8141182194906754
-0.2713457957774832 -0.5949012302218968 0.7566134980254828
-0.2548919413498197 -0.6700312974492239 0.6972002285379926
-0.2402785725859682 -0.7317215538791633 0.6378477680016695
-0.227604532467258 -0.7827087760679573 0.5792781272122749
-0.2167641606038565 -0.8254120716225822 0.5212563771287811
-0.2075435427640315 -0.8618226420977506 0.4628038584806813
-0.199658081345979 -0.8934692229463967 0.4023051058597243
-0.1927537319716134 -0.9213695782296002 0.3375264421108711
-0.1863597855194745 -0.9459056037104066 0.2655797793703158
-0.1798210916569415 -0.9665451635992812 0.1829065928777412
-0.172223999780638 -0.9813488514868338 0.08540096946188708
-0.1624492998096789 -0.9862258754071014 -0.03112471154630656
-0.1497485165336057 -0.9740111884072796 -0.1699340656061124
-0.1363949191380454 -0.9333366948554499 -0.3320828813257775
0 0 0
0.00616201056265086 0.7851415497426611 -0.6192856986024441
-0.08636229469840137 0.8799734063028316 -0.4671063671737061
-0.1197725320699232 0.9403002468975266 -0.3185749303476488
-0.135954749198713 0.9730127920620987 -0.1864468091811528
-0.1458152524426433 0.9865852322804004 -0.07339953406743129
-0.1527439811785481 0.988020032244196 0.02203842321729307
-0.1580375691781009 0.9820343488258081 0.1031148120036463
-0.1622974523076573 0.9713635581327222 0.1735291759508489
-0.1658542736940791 0.9572944946345321 0.2368113393396202
-0.1689247087573592 0.9400998316304356 0.296102599346354