# OOMMF: rectangular mesh v1.0
# Segment count: 1
# Begin: Segment
# Begin: Header
# Title: 
# Desc: time = 7.399999999999999e-10
# Desc: stepsize = 5.464778608567535e-14
# Desc: step = 4734
# meshunit: m
# valueunit: (none)
# valuemultiplier: 384000.0000000001
# xmin: 0
# ymin: 0
# zmin: 0
# xmax: 9.357999999999999e-08
# ymax: 9.357999999999999e-08
# zmax: 2.3395e-08
# ValueRangeMaxMag: 1
# ValueRangeMinMag: 0
# meshtype: rectangular
# xbase: 1.16975e-09
# ybase: 1.16975e-09
# zbase: 1.16975e-09
# xstepsize: 2.3395e-09
# ystepsize: 2.3395e-09
# zstepsize: 2.3395e-09
# xnodes: 40
# ynodes: 40
# znodes: 10
# End: Header
# Begin: Data Text
0 0 0
0 0 0
0 0 0
0 0 0
0 0 0
0 0 0
0 0 0
0 0 0
0 0 0
0 0 0
0 0 0
0 0 0
0 0 0
0 0 0
0 0 0
0 0 0
-0.83654101720312 0.02164844796764345 -0.54747645724484
-0.8461114597211028 0.04025342800665962 -0.5314838278464704
-0.856280242041571 0.02111914440070057 -0.5160795760626556
-0.86142431246123 -0.01368092201439484 -0.5077016705443586
-0.8597880860970114 -0.05295712880643685 -0.5078976171574501
-0.8514729610887092 -0.08806552679163117 -0.516950925645498
-0.8385038821513476 -0.1077116047117147 -0.5341436602895757
-0.827062598350123 -0.08918155153827501 -0.5549901884498214
0 0 0
0 0 0
0 0 0
0 0 0
0 0 0
0 0 0
0 0 0
0 0 0
0 0 0
0 0 0
0 0 0
0 0 0
0 0 0
0 0 0
0 0 0
0 0 0
0 0 0
0 0 0
0 0 0
0 0 0
0 0 0
0 0 0
0 0 0
0 0 0
0 0 0
0 0 0
0 0 0
0 0 0
-0.7827535496627254 0.2326849895936541 -0.5771954401311603
-0.8105108653322315 0.2622439515486288 -0.5237368108645382
-0.8472588800471615 0.2448795461534995 -0.4713665219941751
-0.8835886744566216 0.1966082632376566 -0.4249897001089107
-0.9152827193453745 0.1147354834718477 -0.3861260318862444
-0.9282001184316242 0.07401237933158684 -0.3646460034734995
-0.9361487866414179 0.03503027980857516 -0.3498547252308208
-0.9396175949350444 -0.007829221597540612 -0.3421366372922646
-0.9381002223696006 -0.05247229525440693 -0.3423662235397053
-0.9316344657524693 -0.09551368048136523 -0.3506199638683087
-0.9207533960296347 -0.1348189422023741 -0.3661106888952122
-0.9047061031380697 -0.1758144859977109 -0.3880671764760433
-0.8682333115212887 -0.2572117727405721 -0.4242794135100459
-0.8275472607353432 -0.3064131502981435 -0.4704003747594133
-0.787107484022208 -0.325135067444202 -0.5241650470169514
-0.7569025046836898 -0.2967905404016232 -0.5822490648611369
0 0 0
0 0 0
0 0 0
0 0 0
0 0 0
0 0 0
0 0 0
0 0 0
0 0 0
0 0 0
0 0 0
0 0 0
0 0 0
0 0 0
0 0 0
0 0 0
0 0 0
0 0 0
0 0 0
0 0 0
0 0 0
0 0 0
-0.7564337057060524 0.3269997829826333 -0.566461994136517
-0.7940680037676915 0.3552619060229127 -0.493198726196003
-0.8491086030208501 0.3178457650345776 -0.4218870108519148
-0.8829565356327133 0.296440727229574 -0.364020125024809
-0.9128435491079623 0.2630280641053315 -0.3123025653832839
-0.9393245027016205 0.2140589377122943 -0.2680452383644163
-0.960175763371772 0.1528493843005865 -0.2338793901829869
-0.9721751488620811 0.09932038849261385 -0.2121578194756577
-0.978899654471405 0.0486583374332672 -0.1984636809947691
-0.9814528883667722 -0.002159056059409076 -0.191691331033648
-0.9799705112125855 -0.05334241204892406 -0.1918655368494976
-0.9744494704783337 -0.104184262701317 -0.1989820818311975
-0.9647037169043956 -0.1548950580261551 -0.2129653952873967
-0.9494416101987885 -0.2084734422598309 -0.2347327260853673
-0.924781466088761 -0.269717268490977 -0.2683874718694733
-0.8945875954254978 -0.3191602062356854 -0.3128095217003793
-0.8612556338181795 -0.35333999088532 -0.3652253880244464
-0.8241334299697125 -0.3756668356351823 -0.4238850294716776
-0.7651368941260123 -0.4134447174179968 -0.4935878836502691
-0.7246259830921031 -0.3867502031680115 -0.5703871185232925
0 0 0
0 0 0
0 0 0
0 0 0
0 0 0
0 0 0
0 0 0
0 0 0
0 0 0
0 0 0
0 0 0
0 0 0
0 0 0
0 0 0
0 0 0
0 0 0
0 0 0
0 0 0
0 0 0
-0.7606021633325671 0.4078317593505312 -0.5051312752135514
-0.8116973595054735 0.4073161719027097 -0.4186178838491782
-0.8514158040163794 0.3971460573979167 -0.3425874162377134
-0.88934013859195 0.365516577025328 -0.2747212219850112
-0.9187360315535388 0.328971767407075 -0.2184071440551325
-0.9431689718017177 0.2851543594065377 -0.170643728106066
-0.9636108570967797 0.2328985889541421 -0.1311958968427686
-0.9794597349799763 0.1744277614042802 -0.1011611763694225
-0.9899279025064726 0.1161676821929485 -0.08091858533768981
-0.9959213496206105 0.05884277560212845 -0.06839731814405145
-0.9980502034058299 0.001825627908866918 -0.06238957095796767
-0.9965198935821781 -0.05513740900250404 -0.06251374107709889
-0.9913233678557885 -0.1120293978236149 -0.06875604967080683
-0.982224407307458 -0.1691126569976921 -0.08146240195754778
-0.9685521620430304 -0.2270335026474876 -0.1017963559140697
-0.9493770035608841 -0.2851317725523009 -0.1318452782276991
-0.9256953168282669 -0.3371502883744799 -0.1715163649662012
-0.8981401178525518 -0.3809281608841377 -0.2196316574386131
-0.8655860210790339 -0.4177165296356214 -0.2761770102339052
-0.8241857851387422 -0.4499507062034763 -0.3438926483108175
-0.7810831139326764 -0.461330614791234 -0.4208125865341662
-0.7266907567559574 -0.4622644760928988 -0.5081654240382862
0 0 0
0 0 0
0 0 0
0 0 0
0 0 0
0 0 0
0 0 0
0 0 0
0 0 0
0 0 0
0 0 0
0 0 0
0 0 0
0 0 0
0 0 0
0 0 0
-0.6561810105894412 0.4978737499624306 -0.567052211388128
-0.7075904580703839 0.533267173731345 -0.4636182320275243
-0.7875808514180944 0.4981242840182877 -0.3627514302533028
-0.8370869787528754 0.471107182550458 -0.2781068365785926
-0.8736953851771172 0.440758714005029 -0.205883777769986
-0.9043976726172412 0.4016613547639383 -0.143989603283411
-0.9296458276635278 0.3566508754815014 -0.09251371858309658
-0.9506954653713299 0.3060880302224902 -0.04988236037825012
-0.968105304165027 0.2500694476134656 -0.01540751173408245
-0.9817387229210485 0.1899255225622582 0.01083401111322087
-0.9913144327827341 0.1282599321102884 0.02907034866852547
-0.9969803754398481 0.06629840893449543 0.04043082933323716
-0.9989389931874749 0.00434001025416008 0.04584814282593152
-0.9972943878851173 -0.05753404021684107 0.0457573831110978
-0.9920522556360137 -0.1192437763829339 0.04016520734956423
-0.9831181068850218 -0.1807152836744863 0.02864915637955392
-0.9703032940696311 -0.2416729410054879 0.0102813959840273
-0.9535030650970983 -0.3009534780596455 -0.01609064617224857
-0.9330818517794103 -0.3560651412585273 -0.050753059616646
-0.9091627389995633 -0.4057912287722307 -0.09357666731795033
-0.8810626392925081 -0.4501802246106815 -0.1451426574525746
-0.8473422525919863 -0.4890487319961053 -0.2069841653492829
-0.8074466363090502 -0.5196960138476435 -0.2791880776538812
-0.7540187190987402 -0.5472836884156633 -0.3632304167368716
-0.6690024346030702 -0.5828185885760236 -0.4612572333366878
-0.6136393800197478 -0.5494794179888502 -0.5670265253897856
0 0 0
0 0 0
0 0 0
0 0 0
0 0 0
0 0 0
0 0 0
0 0 0
0 0 0
0 0 0
0 0 0
0 0 0
0 0 0
-0.6350565360848136 0.5441863130269076 -0.5482375878121982
-0.6982166068965386 0.5676924024802461 -0.4361409244958445
-0.7495933167256582 0.57280877361615 -0.3316624313795403
-0.8013673251237363 0.5496738827712968 -0.2359428592332344
-0.8419824943622942 0.5165912902044176 -0.1555600143751082
-0.8743360967947778 0.4771629849683693 -0.08861080982446833
-0.9014601621501841 0.431621380600361 -0.03274995976793424
-0.9244969970503287 0.3809546064749437 0.01337498599792516
-0.9440998690825545 0.3256685979565411 0.05114099630749873
-0.9604908477847407 0.2661416494707449 0.08139996154016794
-0.9735359375940881 0.2032295124844333 0.1045253245301771
-0.9829837539448926 0.1382811558180498 0.1209184081355292
-0.9887024275751036 0.07233901264499179 0.1312805277131537
-0.9906556744767335 0.00601534270291082 0.1362539917918517
-0.9888461889487251 -0.06030259027386813 0.1361866814627753
-0.9832957325216977 -0.126284533660902 0.1310790561556867
-0.974047595755936 -0.1915482505250312 0.1205841984792352
-0.961192188192608 -0.2555018560808909 0.1040594969078988
-0.9449253237644812 -0.3171554363668306 0.0807995154165847
-0.925552026794684 -0.3752506551412058 0.05040229669715344
-0.903195122799719 -0.4290473166415253 0.01252877621742679
-0.8775450724882317 -0.4783138017070797 -0.0336236947426067
-0.8478005436322463 -0.5227236189468245 -0.08941060570202047
-0.8126254163157114 -0.561466537240533 -0.1561898214252166
-0.7686844508494151 -0.5944318256936938 -0.2361673551208858
-0.7128592706499451 -0.6181744102292906 -0.3311979148275183
-0.6572931413011721 -0.6146641926015145 -0.436066115092614
-0.5901896382549235 -0.5924447216297605 -0.5483479212229744
0 0 0
0 0 0
0 0 0
0 0 0
0 0 0
0 0 0
0 0 0
0 0 0
0 0 0
0 0 0
0 0 0
-0.5926431778724219 0.5896465920465755 -0.5487175595961326
-0.6612437847268807 0.6171927958735337 -0.4264149503498682
-0.7145892120582765 0.6251498305006459 -0.3139266593249841
-0.7586133063022249 0.6156002097616784 -0.21340626336306
-0.7982117880597683 0.5891970190137106 -0.125318850089618
-0.832177502512162 0.5521223737127302 -0.05139541573370086
-0.8613215260499459 0.5079667080093034 0.009749477790256896
-0.8867942728374372 0.4582230461185967 0.0602292094296019
-0.9092063055730876 0.4037234032283422 0.101741376007315
-0.9287775499050727 0.3449325325967153 0.1356237838608904
-0.9454371632342364 0.2822398032316777 0.1627552267896266
-0.9589084069876718 0.2162642337051228 0.1836421744270655
-0.9688395606579332 0.1478972118280602 0.1986864878083772
-0.9749370716367441 0.07803449337075043 0.2083466443040057
-0.9770162469146756 0.007433096311654452 0.2130352138590766
-0.9750045049352359 -0.0632655887379327 0.2129875128678618
-0.9689380075816447 -0.1334597192821196 0.2082009625166261
-0.9589638809302782 -0.2025119118311133 0.1984368933380225
-0.9453456143395874 -0.2696826830663718 0.1832837142329622
-0.9284535124211074 -0.3341203183650755 0.1622889032821667
-0.9086944566090223 -0.3950092435120566 0.1350632521008798
-0.8863522686521472 -0.4518336208871375 0.1011238591590016
-0.861447121020751 -0.5043357797652683 0.05961777363855115
-0.8336507618869978 -0.5522149758677622 0.009221042923337419
-0.8021822787846583 -0.5948314274286859 -0.05176064670195018
-0.7656489391652589 -0.6309114068249544 -0.1254292577243044
-0.7229975514832429 -0.6571204721646771 -0.2132304518855283
-0.6753509961995291 -0.6674651727504306 -0.3136738355322942
-0.61770410489077 -0.6610445370964053 -0.425983284620525
-0.5447472400707761 -0.6349423263136996 -0.5478126383085907
0 0 0
0 0 0
0 0 0
0 0 0
0 0 0
0 0 0
0 0 0
0 0 0
0 0 0
-0.5497515318841215 0.61311441966265 -0.5673305576053462
-0.6149359306417471 0.6567964547068444 -0.4364312297376159
-0.6677417653910727 0.6748833183291733 -0.3140914538688005
-0.7111872696571868 0.6723167442619458 -0.2054333538220421
-0.7483146393685349 0.6539363182344975 -0.1113215711380731
-0.7816292629161705 0.6229729961123326 -0.03098937669503956
-0.8117810548240242 0.5828365160005921 0.03623692378066665
-0.8392315717535865 0.5359434175253991 0.09195119457190336
-0.8643373879443611 0.4835995860836289 0.1380301421475069
-0.8871967936854344 0.4264749855457611 0.1760708265955128
-0.9076643458718674 0.3649420365148442 0.2072745648105244
-0.9254041743726897 0.299336338976473 0.2324325068095288
-0.939954882820214 0.230159125122312 0.2520150697584753
-0.9508190813777706 0.1581370230236113 0.2663376737098253
-0.9575616674548253 0.08412880122938778 0.2756773436915699
-0.9598798102335567 0.009025129615911421 0.2802664748795446
-0.9576389037119477 -0.06629133838152325 0.2802377357761878
-0.9508870617618721 -0.1409447062507078 0.275587346505196
-0.9398559942783722 -0.2140562706399565 0.2661778033922543
-0.9249455835184961 -0.2847512124244213 0.2517785029593481
-0.9066800791045152 -0.3522085936943165 0.2321213921268378
-0.8856232949772963 -0.4157661744162465 0.206905455715492
-0.8622648555647549 -0.4750122011751986 0.1756779086640779
-0.8369222702012911 -0.5297261404498101 0.1376638288195736
-0.8096705068942083 -0.5796809936045049 0.09167123823407711
-0.7802792248903612 -0.624388372300726 0.0361039020072137
-0.7481871845007361 -0.6627666776796416 -0.03092358171931732
-0.7126644525337187 -0.692661237624195 -0.1110395784742218
-0.6727567330406261 -0.7109050545821078 -0.2049692209042937
-0.6256268184877756 -0.7143854292758119 -0.3134398545610896
-0.568212607325764 -0.6981018737503978 -0.4356468830856478
-0.4984412747081553 -0.6561632586702633 -0.5665739789634976
0 0 0
0 0 0
0 0 0
0 0 0
0 0 0
0 0 0
0 0 0
0 0 0
-0.5831505401112247 0.6685162762737844 -0.4615424530040758
-0.6185118601211859 0.712405640602005 -0.3315437861397447
-0.65746511234996 0.7225685173311162 -0.2136220115169938
-0.6930120521187455 0.7122557068630673 -0.111472434526017
-0.7252018729105799 0.6880952015347135 -0.0246421823686274
-0.7551547898704242 0.6537442501148915 0.04857673082323623
-0.783501922310205 0.6115910273412832 0.1099142984868056
-0.8104858077678351 0.5631514341514416 0.1611620849334409
-0.8360888129308639 0.5092534788933266 0.2040009586421159
-0.8600735380049891 0.4503005273229282 0.23979771541087
-0.8820168636753228 0.3865167314761431 0.2695386215022728
-0.9013513179220847 0.3181525917704212 0.2938447379652804
-0.9174198656562211 0.2456403376257694 0.3130520957131871
-0.9295530671647149 0.1696626224567415 0.3273311623811147
-0.9371614722119562 0.09112635551455638 0.3367853356845464
-0.9398206361431668 0.01109314526668519 0.3414880876510113
-0.9373319133243398 -0.06928959747850197 0.341478895314189
-0.9297534925003834 -0.1488477047381893 0.3367533280867635
-0.9174000536798054 -0.2264378056640563 0.3272660411260793
-0.9008089167220058 -0.3010129042723523 0.3129449264897092
-0.8806716368242368 -0.3716993773412053 0.2936954902232572
-0.8577377218618298 -0.4378706411972165 0.269360914152028
-0.8327115131865974 -0.4991730961255698 0.2396200240190687
-0.8061674446787567 -0.5554577542563152 0.2038645000402325
-0.7784878600973408 -0.606628682732363 0.161115775042237
-0.7498102266515972 -0.6524438132673535 0.1100077021750496
-0.7199776508378979 -0.6922757934604772 0.04885087596561256
-0.688485462420854 -0.7248473550143534 -0.02416774635414341
-0.6543499843082169 -0.7480283726838465 -0.1108135898515699
-0.616042715002196 -0.7584046930077816 -0.2128701362720822
-0.5732851815578361 -0.7494739438209043 -0.3311086047503718
-0.533775711952661 -0.7075716209429299 -0.4630614328203374
0 0 0
0 0 0
0 0 0
0 0 0
0 0 0
0 0 0
0 0 0
-0.4626501976620848 0.7262625472618019 -0.5084265011267919
-0.5476726987605292 0.7535976515624367 -0.3635178050549078
-0.5948284894328695 0.7682780003339618 -0.2364909773371049
-0.6313163726683232 0.765255979684263 -0.1257892012789224
-0.663178548035123 0.7478055895058247 -0.03132113870649241
-0.6926920037449844 0.7196068740695508 0.04841213421868216
-0.7210611121673939 0.6831644313742338 0.1155734927439683
-0.7488403383133444 0.6399762539555898 0.1722455865551439
-0.7761373367762694 0.59084811672108 0.2202483539756703
-0.8027500182153109 0.5361275270382491 0.261074094860384
-0.8282440525249222 0.475909252811844 0.2958414652227871
-0.8519991589170076 0.4102225393646904 0.3252920248052449
-0.8732499098696888 0.3391983329625625 0.3498272228229223
-0.891140217938441 0.2632052434168363 0.3695837006829591
-0.9048038550739848 0.182929491535667 0.3845345042642564
-0.9134685159074359 0.09938312122090329 0.3945861954785762
-0.9165649118929465 0.0138510480407489 0.3996459817824364
-0.9138166847015198 -0.07220233850407604 0.3996572144671794
-0.9052908734779215 -0.1572505022336014 0.3946146398004785
-0.8913967653940854 -0.2398325307232006 0.3845675023345919
-0.872831518540598 -0.3186762650654389 0.3696086826984116
-0.8504829354708404 -0.3927989840382889 0.3498395841116176
-0.8253108995033425 -0.4615644927498013 0.3253000740756165
-0.7982344815264754 -0.5246752391137428 0.2958675480060209
-0.7700443442127018 -0.5820919697259436 0.2611525353631481
-0.7413408059578609 -0.6338993406899475 0.220421040952533
-0.7124821193215372 -0.6801424242531239 0.1725558239474227
-0.6835224161949924 -0.7206438124104544 0.1160586153350306
-0.6541153360366668 -0.7547998068341537 0.0490956084060688
-0.6233607127175731 -0.7813417850675816 -0.03043742347248877
-0.5896069862005067 -0.7980002000837396 -0.1247368529740368
-0.550113624488613 -0.8012432339465809 -0.235338650048872
-0.4986039926702506 -0.7875578987603755 -0.362141705128567
-0.4083740568781312 -0.7606938391030204 -0.5045547669179278
0 0 0
0 0 0
0 0 0
0 0 0
0 0 0
-0.3871849167946262 0.724230003279301 -0.5705950775784886
-0.4617648048832533 0.7806988191744255 -0.4210494254963282
-0.5201361131334176 0.8070719320958134 -0.2794518209595181
-0.561915704237718 0.8122585633671536 -0.1564824832617264
-0.5952902775293636 0.801820827195682 -0.05208499356095753
-0.6248557884478408 0.7799215635779813 0.0357435072328323
-0.6529175215586989 0.7494567286905168 0.109605300337867
-0.6806193606630291 0.7121357817155064 0.1721043703428046
-0.7084350629405631 0.6687873976167865 0.2254843195997577
-0.7363969725088064 0.6196710431345513 0.2715277097837361
-0.7642181570381115 0.5647131399738277 0.3115600712449714
-0.7913586969713565 0.5036924319331514 0.3464756077144012
-0.8170640862427516 0.4364040264125779 0.3767728821228871
-0.8404008043772071 0.3628149491915159 0.4026062600672032
-0.8603116645030889 0.2832052254718507 0.4238615813981756
-0.8757069725809653 0.1982716362282009 0.4402563530949574
-0.885592811321997 0.1091671144967537 0.4514508983790526
-0.8892179613120262 0.0174591927721205 0.4571505155502169
-0.8862052888085319 -0.07499285097409292 0.4571829594271459
-0.8766297176514843 -0.1662241263277056 0.4515416680184332
-0.861016769837294 -0.2543768084627486 0.4403891022439789
-0.8402601944339742 -0.3378923928478749 0.4240183209547868
-0.8154831672435633 -0.4156424306207969 0.402776083959862
-0.7878821448367221 -0.486974960198136 0.3769577084866542
-0.7585900368939201 -0.5516756376287903 0.3466917171957647
-0.728578247627834 -0.6098622662625723 0.3118361000151091
-0.6985949094325267 -0.6618424307741281 0.2719002562373791
-0.6691205903525516 -0.7079584261778274 0.2259922617481978
-0.6403165300435758 -0.7484255266873788 0.1727830210283204
-0.6119393260203783 -0.7831500696472158 0.1104818070149353
-0.5831959534613422 -0.8114959416121829 0.03683499169637903
-0.5524983889835419 -0.8319664420679169 -0.0507677992771196
-0.5169918184177406 -0.8418569128940505 -0.1549077076895035
-0.4715428826825411 -0.8370621643928982 -0.2774423232553305
-0.4077999231362619 -0.8117900780114473 -0.4179666158106725
-0.3275346892785015 -0.7566536095671398 -0.565858942182814
0 0 0
0 0 0
0 0 0
0 0 0
-0.413916669527352 0.7647746714750134 -0.4937536759940823
-0.4504263959511532 0.8238407966716256 -0.3440965032805703
-0.4895329375574767 0.8470062120976175 -0.2072148153834391
-0.5232190069430168 0.8474677705001026 -0.08966743409481685
-0.5527224317844459 0.8333175204850984 0.00893439728549845
-0.5801999192359174 0.8093351946767846 0.09134876231304585
-0.6071572788183514 0.7781513367963647 0.1607499170137419
-0.6344348597831281 0.7410067111783476 0.2200033242490015
-0.6623814753488643 0.6982699518768883 0.2714219140388432
-0.6909789829480144 0.6497894090633239 0.3167361188643684
-0.719910349652116 0.5951315119530375 0.357138029260759
-0.7485907841878271 0.5337596087888927 0.3933351215624932
-0.7761818603054487 0.4651953955366234 0.4255995344267857
-0.8016110677571812 0.3891851128768098 0.4538222603225365
-0.8236216478453128 0.3058694566817621 0.477589003924687
-0.8408744037679806 0.2159322207713557 0.4962897471443402
-0.8521086864932755 0.1206849885372389 0.5092601692106605
-0.8563433375333834 0.02204262623492837 0.515936246924804
-0.8530688437717637 -0.07763630684623628 0.5159904569322797
-0.8423667700813929 -0.1758274441575428 0.5094143053975488
-0.8249086372568301 -0.2701692554809988 0.4965222186085145
-0.8018323839885236 -0.3587487903104229 0.4778746001181569
-0.7745422330555017 -0.440271528759969 0.4541423897598154
-0.7444973818935751 -0.5140924486987632 0.425949060973869
-0.7130414577942078 -0.5801319303329442 0.3937242980498951
-0.6812938895995698 -0.6387235890822869 0.3575902861434168
-0.6500952212520074 -0.6904400457920942 0.3172833851179632
-0.6199819594669668 -0.7359241946248799 0.2720991541721907
-0.5911627121940588 -0.7757284678827553 0.2208438177256424
-0.5634703219818277 -0.8101404799949243 0.1617825667965752
-0.5362692753588872 -0.8389522307569961 0.09259815772418728
-0.5083043851764022 -0.8611143941971106 0.01042363261930313
-0.4775195465226628 -0.8742120093605348 -0.08791157704538133
-0.4411429748564515 -0.8736699078506108 -0.2051676579071486
-0.3975660508766332 -0.8515071190417026 -0.341872580666624
-0.3557160289139794 -0.7942900860050232 -0.4925133156045641
0 0 0
0 0 0
0 0 0
-0.2972982108115259 0.7565944114752791 -0.5823904792942971
-0.3761721831569076 0.8238250748988079 -0.4240362420677494
-0.4182277679046701 0.8652838090858573 -0.2763502558119791
-0.4507023805197155 0.8807634423011674 -0.1453379609725517
-0.4788499462750285 0.8772441960372882 -0.03384301214864924
-0.5048874230635556 0.8611410738570956 0.05936952878783663
-0.5302933778271323 0.8366097055508829 0.1373795254423116
-0.5560394076376144 0.8058495397556383 0.2035354918181011
-0.5826857708909018 0.7697250811895784 0.2607692309091925
-0.610465109475917 0.7282647356072353 0.3113885434364589
-0.6393319196752417 0.6809966952134253 0.3570688975432648
-0.6689772917969093 0.6271723188171801 0.3989038299760406
-0.6988192097752486 0.5659366645609244 0.4374556020383693
-0.7279830295384097 0.4964943036823842 0.4727939457258553
-0.7552934404264823 0.4183000194510865 0.5045363342475425
-0.7793071774327535 0.331278999680409 0.5319159215257068
-0.79841830856578 0.236048273188027 0.5539037978493278
-0.8110550577542504 0.1340757408416834 0.5693973911153813
-0.8159516031790839 0.02769183255953564 0.5774566162743109
-0.812427086902096 -0.08011243461131846 0.5775328789674407
-0.8005675817804404 -0.1860919651987034 0.5696150695783091
-0.7812263646584823 -0.2872448293415081 0.5542344045429326
-0.7558394246570742 -0.3812303246061269 0.532325280007224
-0.7261374913835965 -0.4665858847890436 0.5049969858551255
-0.6938610979191877 -0.5427248795969668 0.4732932303137634
-0.6605517002554009 -0.609778175266432 0.4379977491476855
-0.6274389396075156 -0.6683669044485133 0.3995072691480185
-0.5954048102235833 -0.7193747952307156 0.3577611157593623
-0.5649895742864608 -0.7637522516763153 0.3122007030853092
-0.5364056217968922 -0.802349853187852 0.2617321569737291
-0.509533651226471 -0.8357526069715483 0.2046778889085997
-0.4838840881782706 -0.864066348815939 0.1387282741613085
-0.4585159900804584 -0.8865935365811132 0.06095069920132879
-0.4319287408202617 -0.9013396954479214 -0.03200494123211183
-0.4019906509771351 -0.9043726551971852 -0.1432257555699109
-0.365875833289269 -0.8894296801654561 -0.2739520371445642
-0.3182424233558066 -0.8493314299175935 -0.4211387920042022
-0.2331328382340989 -0.7831217498188048 -0.5765148781234063
0 0 0
0 0 0
-0.325665804934164 0.7868292078213261 -0.5242533559414253
-0.3538718672611824 0.8609872402967155 -0.3653432271266699
-0.3814685776761703 0.8978766610402307 -0.2197708483966098
-0.4063455508687172 0.9088987305109246 -0.0937357507295262
-0.4296192448335329 0.9029257185683252 0.01234711369259325
-0.4524254164820686 0.8860742757367139 0.1009139256925622
-0.4756247580620819 0.8619772333185478 0.1754318635792459
-0.4998060148852644 0.8324156546680024 0.2393284883756028
-0.5253269456934102 0.7979345094311813 0.2955200818679707
-0.5523435856305996 0.7582931934637722 0.3462773399447989
-0.5808129254559803 0.7127585710517206 0.3932322024142662
-0.6104688981028538 0.6602975976036753 0.4374183432915241
-0.6407772968398499 0.5997307196343188 0.4792989878786689
-0.6708804124729466 0.5298988937467866 0.518774165283951
-0.6995522020114411 0.4498833248041782 0.5551861946447169
-0.7251993723105363 0.3592927202804078 0.5873624192556994
-0.7459554974262618 0.2585900800065247 0.6137438931523119
-0.7599083471360967 0.149370290475579 0.6326356141382856
-0.7654560704065994 0.03444544517073096 0.642565572984327
-0.7617043429470793 -0.08239858085375061 0.6426639618096268
-0.7487401136529855 -0.1969902690631353 0.6329163263033646
-0.7276350280386464 -0.3055202489148728 0.6141698816078429
-0.7001729872669694 -0.4051473781329751 0.5878889264934523
-0.6684424902756739 -0.4942648292783391 0.555775958217436
-0.6344622285288752 -0.5724284483556186 0.5194067308799064
-0.5999370537768324 -0.6400795205589256 0.4799726438731997
-0.5661548337178136 -0.6982092713265435 0.4381466851313738
-0.5339839059985835 -0.7480607627673621 0.3940384287634994
-0.5039194978931132 -0.7909014217442576 0.347188825750576
-0.476137687629983 -0.8278540272615552 0.2965646842852269
-0.4505306187891551 -0.8597476897179355 0.2405328908031763
-0.4267085641806687 -0.8869352256078212 0.1768211153422433
-0.4039638090195576 -0.9090131506114091 0.1025101605594755
-0.3812066530317573 -0.9243813395742181 0.01416427658931775
-0.3569206063538367 -0.9296223478804783 -0.09170589447356192
-0.3292656214461072 -0.9188245081765986 -0.2175906103390955
-0.2967636593285152 -0.8831786904985703 -0.3632171955609736
-0.2625954183197409 -0.8108824204268125 -0.5229850347000703
0 0 0
0 0 0
-0.3069607850884253 0.8273110677018239 -0.4704587906246039
-0.3197120693382174 0.8943600739762367 -0.3128965496720832
-0.3377140098354789 0.92547015373051 -0.1716223823248817
-0.3566463699357629 0.932853105387024 -0.05087681772112077
-0.3758536905812526 0.925315185122619 0.05025745176533056
-0.3956371361659021 0.9084468337810829 0.1348910919207344
-0.4164207230393407 0.885364237457966 0.2066977224206072
-0.4385524072027313 0.8574688219836352 0.269107795246972
-0.4622728708985547 0.8250363176792999 0.3249905650036456
-0.4877083133690937 0.7876090860117319 0.3765800428892078
-0.5148483571607809 0.7442366893640375 0.4254913857333675
-0.543500562243295 0.6936278633081869 0.4727446732473467
-0.5732214460893947 0.6342761839871669 0.518758996230292
-0.6032300296232457 0.5646182415839253 0.5633114348488002
-0.6323224294937668 0.4832773567418026 0.6054843859421614
-0.6588276104244211 0.3894265635795624 0.6436560660174496
-0.6806692556683649 0.283253344426847 0.6756159465694097
-0.6956057239716164 0.1664140854522906 0.6988841312699843
-0.701672764216668 0.04225466737730696 0.7112452987833189
-0.6977287002735131 -0.08445905441984274 0.7113658193511547
-0.6838557511059777 -0.2083811368623102 0.6992271544206856
-0.661369392660666 -0.3247044245739736 0.6761342789074858
-0.632425697119068 -0.4300281922197836 0.6442930168173836
-0.5994631254454775 -0.5226613680990089 0.6061922595414853
-0.564732906420045 -0.6024208685687454 0.5640619128422395
-0.5300347423193132 -0.6701765721312035 0.5195445448669136
-0.4966431198387488 -0.7273741284597025 0.4735741639535687
-0.4653518121007335 -0.7756575012978368 0.4263837844653091
-0.4365649468463209 -0.8166151816644546 0.3775588593321552
-0.4103866480792773 -0.8516187566865633 0.3260801931088217
-0.3866841476242821 -0.8817007588007717 0.2703315407166266
-0.3651141308308324 -0.9074116865183217 0.2080761943078064
-0.3451118542965224 -0.9285915808273154 0.1364385724076683
-0.3258588382846895 -0.943988814331902 0.05197245354995142
-0.3062938261006311 -0.9506733175583443 -0.04903402262967391
-0.2853805828893594 -0.9432554736480955 -0.1697852594975068
-0.2632779073156072 -0.9130619327914842 -0.3114524849902361
-0.2451502801859656 -0.8476292348039628 -0.470559263462521
0 0 0
0 0 0
-0.2577730715517235 0.8680457331369655 -0.4243225763089884
-0.2702850528827897 0.9245976493744639 -0.2684495799202573
-0.2857143052307439 0.9491913443492387 -0.1319209141834524
-0.301556987860064 0.9533108416347343 -0.01618092378200387
-0.3177849843675754 0.9447231370654501 0.08069013572744956
-0.334779872730999 0.9282395185218766 0.1621537328231767
-0.352901000765193 0.9064541670186177 0.2319519923464947
-0.3724263653293282 0.8804356664124742 0.2934819240028378
-0.3935612030070359 0.8502411171175113 0.349570625554294
-0.4164395432826195 0.8152426108160573 0.4024395511134331
-0.441102371808321 0.7743136579087735 0.4537257506038289
-0.4674487731839528 0.7259359970070254 0.5044884267237781
-0.4951580780798335 0.6682881816049432 0.5551660868960234
-0.5235841203341144 0.5993811769263007 0.6054765674081809
-0.551634664283478 0.5173121006315075 0.6542838739423973
-0.5776754588009291 0.4206994027620397 0.6995020205937924
-0.5995377998274128 0.3093097733001006 0.7381611549784671
-0.614738848608235 0.1847543460343434 0.7667867889010888
-0.6209892874318488 0.0509321882020899 0.7821625260135076
-0.6168984922478062 -0.08622445343116289 0.7823053073403502
-0.6025364793373248 -0.2199239210167712 0.7671918013328803
-0.5794530308166216 -0.3441707402578273 0.7387697114986577
-0.55013675278088 -0.4549803724035711 0.7002445386914602
-0.5172925594058396 -0.5506813145345137 0.6551018987958248
-0.4832932756116251 -0.6314957044217182 0.6063338890788667
-0.4499236117669549 -0.6988404033307763 0.5560493091867443
-0.418356960398846 -0.7546831841975877 0.5054015682358216
-0.3892537284048375 -0.8010896041037204 0.4546833855771255
-0.3628923292627356 -0.8399573039211531 0.4034611318972041
-0.3392830986818838 -0.8728761539512692 0.3506767725585179
-0.3182445432190605 -0.9010421429758511 0.2946921568226354
-0.2994362594688512 -0.9251579310142269 0.2332825094103218
-0.2823493964170048 -0.9452563364578772 0.1636131924057005
-0.2662635303193635 -0.9603828782028861 0.08227064893757138
-0.2502070830824091 -0.968083428523234 -0.01452208642352182
-0.2330559279587452 -0.9636943902836473 -0.1302998717540292
-0.2142391792533148 -0.9395373452336782 -0.2671537964995406
-0.1968101760286626 -0.8839543551590836 -0.4241349462221363
0 0 0
-0.08975758041700727 0.8269467109823524 -0.5550700081549658
-0.1763882604475918 0.9045753603770966 -0.3881115805730581
-0.2090546108238453 0.9493035219707681 -0.2347743445676834
-0.2276310750556884 0.9684068939590409 -0.1018439070420693
-0.2422942442054981 0.970148954878881 0.01022274778621589
-0.2561530029378079 0.9610270296242517 0.1039840729031634
-0.2703687157451168 0.9451688581310153 0.1831845713089615
-0.2854761544234632 0.9247578018414133 0.2516473190578984
-0.3017798058957147 0.9006123626242712 0.3127719952966892