# OOMMF: rectangular mesh v1.0
# Segment count: 1
# Begin: Segment
# Begin: Header
# Title: 
# Desc: time = 7.6e-10
# Desc: stepsize = 5.371984232246116e-14
# Desc: step = 4862
# meshunit: m
# valueunit: (none)
# valuemultiplier: 384000.0000000001
# xmin: 0
# ymin: 0
# zmin: 0
# xmax: 9.357999999999999e-08
# ymax: 9.357999999999999e-08
# zmax: 2.3395e-08
# ValueRangeMaxMag: 1
# ValueRangeMinMag: 0
# meshtype: rectangular
# xbase: 1.16975e-09
# ybase: 1.16975e-09
# zbase: 1.16975e-09
# xstepsize: 2.3395e-09
# ystepsize: 2.3395e-09
# zstepsize: 2.3395e-09
# xnodes: 40
# ynodes: 40
# znodes: 10
# End: Header
# Begin: Data Text
0 0 0
0 0 0
0 0 0
0 0 0
0 0 0
0 0 0
0 0 0
0 0 0
0 0 0
0 0 0
0 0 0
0 0 0
0 0 0
0 0 0
0 0 0
0 0 0
-0.836503709362441 0.02138306881874646 -0.5475438873649936
-0.8460629205758766 0.03999202472229153 -0.5315808239442323
-0.8562159968811101 0.02086056740164371 -0.5161966712528938
-0.8613416928715558 -0.01393626780778315 -0.5078348831665183
-0.8596853452235781 -0.05320753183531171 -0.5080453382955217
-0.8513493594522755 -0.08830792385656469 -0.5171131198725697
-0.8383605451338497 -0.1079409716776952 -0.5343223212595077
-0.8269050043517115 -0.08938837408713496 -0.5551917077516141
0 0 0
0 0 0
0 0 0
0 0 0
0 0 0
0 0 0
0 0 0
0 0 0
0 0 0
0 0 0
0 0 0
0 0 0
0 0 0
0 0 0
0 0 0
0 0 0
0 0 0
0 0 0
0 0 0
0 0 0
0 0 0
0 0 0
0 0 0
0 0 0
0 0 0
0 0 0
0 0 0
0 0 0
-0.7827929365454209 0.2324581510484732 -0.5772334246262261
-0.8105440005899197 0.2620160088818045 -0.5237996126357273
-0.8472825519561258 0.2446474821193555 -0.4714444682498393
-0.8835996689117478 0.1963688417218282 -0.4250775259877619
-0.9152749080217643 0.1144845274782316 -0.3862190255720666
-0.9281775327016298 0.07375784791884972 -0.3647550515870808
-0.9361110907011255 0.03477524430936928 -0.3499810112700003
-0.9395633689678569 -0.008082741609559407 -0.3422796298084992
-0.9380280857039859 -0.05272207368180954 -0.3425254638376608
-0.9315435034550605 -0.09575687285232551 -0.3507952714507634
-0.920643229681784 -0.1350521325860497 -0.3663017405433034
-0.904575556057582 -0.1760349064781775 -0.388271522371053
-0.8680709980831565 -0.2574243629512962 -0.4244825551728022
-0.8273559066750953 -0.3066115166755688 -0.4706076726231073
-0.7868909698904603 -0.3253120319517765 -0.5243802850720614
-0.7566689386635383 -0.2969365946734649 -0.5824781334998939
0 0 0
0 0 0
0 0 0
0 0 0
0 0 0
0 0 0
0 0 0
0 0 0
0 0 0
0 0 0
0 0 0
0 0 0
0 0 0
0 0 0
0 0 0
0 0 0
0 0 0
0 0 0
0 0 0
0 0 0
0 0 0
0 0 0
-0.7565047840774175 0.3268017979873419 -0.5664813293483023
-0.7941341675172695 0.355059340128452 -0.4932380652070568
-0.8491650368882597 0.3176321511644215 -0.421934303740786
-0.8830054537627158 0.2962197665235471 -0.3640813350695621
-0.9128838524305976 0.2628000113499054 -0.3123767372996267
-0.939353864059175 0.2138226259134446 -0.268130943243363
-0.9601911420955902 0.1526039749299224 -0.2339764891538314
-0.972176404165467 0.09906905295452705 -0.2122695501728754
-0.9788863170814434 0.04840410674053176 -0.1985915926754663
-0.9814240395584303 -0.002413546853402957 -0.191835943890602
-0.9799251293448231 -0.05359454789969386 -0.1920269911079127
-0.9743866290374076 -0.1044312345237571 -0.1991602731695278
-0.9646224087347351 -0.1551339936295852 -0.2131596879978311
-0.9493398095953671 -0.2087020375946363 -0.2349412382304958
-0.9246544485913799 -0.2699347099625612 -0.2686064091893536
-0.8944349356393221 -0.3193627913509059 -0.3130392202399544
-0.8610785249432881 -0.3535226174896476 -0.3654661855832341
-0.8239329539863273 -0.3758243659206726 -0.4241350413673554
-0.7649060808091117 -0.4135766361824121 -0.4938350468985418
-0.7243762923398909 -0.3868463348555999 -0.5706390280244608
0 0 0
0 0 0
0 0 0
0 0 0
0 0 0
0 0 0
0 0 0
0 0 0
0 0 0
0 0 0
0 0 0
0 0 0
0 0 0
0 0 0
0 0 0
0 0 0
0 0 0
0 0 0
0 0 0
-0.7606896052583488 0.4076556170363809 -0.5051417844037297
-0.811779276811427 0.4071300655456265 -0.4186400786694102
-0.851492995356905 0.3969506565923616 -0.3426220294858727
-0.8894108861185198 0.3653104868466426 -0.2747663077120945
-0.9187999041612179 0.3287556535910436 -0.2184638559241819
-0.943224785704326 0.2849285679122507 -0.1707123745382896
-0.963656751691752 0.2326630402336053 -0.1312767101513285
-0.979493611109948 0.1741828815560474 -0.101255071811862
-0.9899485634912308 0.1159155800273868 -0.08102727903960669
-0.995927900039702 0.0585861802976527 -0.06852209425170631
-0.9980417803599541 0.001567372970724035 -0.06253117620757953
-0.9964956634523382 -0.05539444850319752 -0.0626725441936906
-0.9912825277897983 -0.1122823069529755 -0.0689320944407226
-0.9821660121338832 -0.1693585889017949 -0.08165533034785341
-0.9684747335376275 -0.2272698948129966 -0.1020053205029534
-0.9492784131170791 -0.2853563189251041 -0.1320691699051444
-0.925574766344052 -0.3373597785916254 -0.1717548593075671
-0.8979975322271239 -0.3811186132238056 -0.2198841394197366
-0.8654208730736944 -0.4178837949912236 -0.276441397645318
-0.8239956442327919 -0.4500912015286936 -0.3441643337009841
-0.7808701055517512 -0.461438975397591 -0.4210890051279154
-0.7264537368707352 -0.4623372498181841 -0.5084380351794127
0 0 0
0 0 0
0 0 0
0 0 0
0 0 0
0 0 0
0 0 0
0 0 0
0 0 0
0 0 0
0 0 0
0 0 0
0 0 0
0 0 0
0 0 0
0 0 0
-0.6562866272791749 0.4977307794973384 -0.5670554946347813
-0.7076933730032001 0.5331178741761913 -0.4636328526336449
-0.7876777910297952 0.4979607745364556 -0.3627654401145109
-0.8371795052254803 0.4709306176288323 -0.2781273618509073
-0.8737837393076597 0.4405697169532835 -0.2059133347435927
-0.904480901128346 0.4014597832246856 -0.1440289621820661
-0.929722869439521 0.3564369766273354 -0.09256385760061557
-0.9507649115005916 0.3058621697580349 -0.04994413048776275
-0.9681653946446042 0.2498321054623999 -0.01548185043466654
-0.9817875953446311 0.1896777377790603 0.01074585587211625
-0.9913505732337375 0.1280037356952834 0.02896695698880579
-0.9970026084668058 0.06603649954781349 0.04031103369868084
-0.9989463857820502 0.004075398688186268 0.04571115245222696
-0.9972861946471043 -0.0577982256890406 0.04560275291576121
-0.9920278600897143 -0.1195043970467 0.03999279800571887
-0.9830768997906966 -0.1809693016847276 0.02845911006433256
-0.9702445249320606 -0.2419174959581739 0.01007407507843728
-0.9534258948157559 -0.3011858066418419 -0.01631480837391277
-0.9329858634716177 -0.3562822229934341 -0.0509936872659358
-0.9090476807191114 -0.4059897432541118 -0.09383305681722473
-0.8809278150765805 -0.4503567066604034 -0.1454132779026611
-0.8471861134276372 -0.4891997158243344 -0.207266319629516
-0.807267874912324 -0.5198178387432676 -0.2794780718747327
-0.7538132833810324 -0.5473737682476612 -0.3635209645022724
-0.6687603698530871 -0.5828774495150816 -0.4615337978531533
-0.6133757561972973 -0.5494966235729628 -0.5672950223572446
0 0 0
0 0 0
0 0 0
0 0 0
0 0 0
0 0 0
0 0 0
0 0 0
0 0 0
0 0 0
0 0 0
0 0 0
0 0 0
-0.6351696506535599 0.5440628347252586 -0.5482291006133747
-0.6983265325508202 0.5675588816389181 -0.4361387047813211
-0.7497011299011733 0.572665101046551 -0.3316668477075254
-0.8014720972879658 0.5495173210143166 -0.2359516712678197
-0.8420843312129764 0.5164207424345661 -0.1555750491207535
-0.8744346654074135 0.4769780570600999 -0.08863379162033033
-0.901554496357957 0.431421856377275 -0.03278218932188652
-0.9245857764951705 0.3807405843374364 0.01333226691936715
-0.9441814713823908 0.325440490417494 0.05108655689125731
-0.960563418468917 0.2659002548741527 0.08133248771043754
-0.9735975658560523 0.2029762537230863 0.1044433826707572
-0.9830327289037871 0.1380182520705862 0.1208205942683316
-0.988737362850083 0.07206934112006315 0.1311656867278276
-0.9906755340927232 0.005742178698337608 0.1361213191748206
-0.9888502696156207 -0.06057579075980851 0.1360357227162689
-0.9832836142098508 -0.1265543075639876 0.1309096683343605
-0.9740190585985462 -0.1918112559232899 0.1203964932542933
-0.96114712648208 -0.255754955396146 0.1038537627895833
-0.9448637314822358 -0.3173956760272302 0.08057613647155187
-0.9254740415579455 -0.3754751628040834 0.05016174358660962
-0.9031008042245275 -0.42925323711189 0.01227174958897644
-0.8774340155709953 -0.4784982814780868 -0.03389606085484351
-0.8476715798628877 -0.5228837568520213 -0.08969654125478717
-0.8124765708888559 -0.5615992787104992 -0.1564866508956335
-0.7685121418599795 -0.594534007331193 -0.2364707211062267
-0.7126591079704097 -0.6182424853383837 -0.3315014708103691
-0.6570681224263907 -0.6146922845750145 -0.4363655322948943
-0.589940314591675 -0.592429256752253 -0.5486328471422833
0 0 0
0 0 0
0 0 0
0 0 0
0 0 0
0 0 0
0 0 0
0 0 0
0 0 0
0 0 0
0 0 0
-0.5927621626060913 0.5895432191985099 -0.548700110515395
-0.6613595703555265 0.617078357513738 -0.4264010077231289
-0.7147032847681617 0.6250239409090341 -0.313917645302298
-0.7587263160277719 0.615462185081619 -0.213402615029629
-0.7983235353004928 0.5890452506233026 -0.1253204919534413
-0.8322877081628758 0.551955494239261 -0.05140333860830674
-0.8614295307169494 0.507783826508459 0.009733917258883675
-0.8868989349957727 0.4580236744740224 0.06020459056150469
-0.90930608330319 0.4035074850567723 0.1017062258220696
-0.9288705869691892 0.3447004858470885 0.1355765751164051
-0.9455213943579232 0.2819926169073302 0.162694366286002
-0.9589817234410765 0.2160036092040501 0.1835660505562132
-0.9689000192876444 0.1476256425573437 0.1985936108839681
-0.9749830675380299 0.07775515881858835 0.2082358117405095
-0.9770466141749523 0.007149648461157786 0.2129056040975504
-0.9750185520010533 -0.06354927070511261 0.2128387028869914
-0.9689354964717858 -0.1337397438179472 0.2080328930733863
-0.9589449603237528 -0.2027845604804105 0.1982498047929487
-0.9453107281301689 -0.2699445305423125 0.1830780645306796
-0.9284033010241254 -0.3343682889558701 0.1620652892763606
-0.9086296316443508 -0.3952405866407074 0.1348223689517434
-0.8862733732976146 -0.4520458547468107 0.100866510745102
-0.8613542264474247 -0.5045265866610599 0.05934492339954542
-0.8335431954235818 -0.5523820478499301 0.008933900389055817
-0.8020584501247192 -0.5949722285429638 -0.05206044416014964
-0.7655062058867763 -0.6310228818193198 -0.1257392992237218
-0.7228329705629578 -0.6571986773281435 -0.2135471732083291
-0.6751635021612917 -0.6675050928065717 -0.3139923509045863
-0.6174923036019716 -0.6610414162910628 -0.4262950866949273
-0.544510319473091 -0.6348931987841787 -0.5481050429661319
0 0 0
0 0 0
0 0 0
0 0 0
0 0 0
0 0 0
0 0 0
0 0 0
0 0 0
-0.549874297864135 0.6130301732328381 -0.5673026205250071
-0.6150555663204055 0.6567009935224349 -0.436406296293868
-0.6678599537690922 0.6747761201042198 -0.3140704855420846
-0.7113051232542497 0.6721970678652943 -0.2054169505799284
-0.7484327170586201 0.6538031227479227 -0.1113101285657139
-0.7817475615898748 0.6228248418157764 -0.03098332398948441
-0.8118991847694009 0.5826719629146498 0.03623668588557983
-0.8393486932659902 0.5357613128304503 0.09194338903296323
-0.8644521760232841 0.4833991907022045 0.1380132522515938
-0.8873074828977513 0.4262560652100861 0.1760431698909981
-0.9077688138695763 0.3647049615421901 0.2072343397999744
-0.9255000675157541 0.2990821975578032 0.2323778477659368
-0.9400397914565116 0.2298898419844688 0.2519441426799869
-0.9508907584494772 0.1578553956032915 0.266248830183919
-0.9576182402920749 0.08383840561696211 0.2755692791359646
-0.9599199431661809 0.008730099155987905 0.2801383373987965
-0.9576618862327051 -0.06658658434710429 0.2800891615935941
-0.9508928167032956 -0.141235749082435 0.2754184349733971
-0.9398450125433863 -0.2143389368749494 0.2659890458959503
-0.9249187985179009 -0.2850217672012531 0.2515706826513702
-0.9066386988332209 -0.3524638409412185 0.2318954734507925
-0.8855685892459487 -0.4160034763246868 0.206662481903986
-0.8621978991897425 -0.4752294010608304 0.1754189242931275
-0.8368436695133356 -0.5299214157807841 0.1373898318375266
-0.8095801694459488 -0.5798526214693084 0.09138318562536228
-0.7801762064668514 -0.6245344235142409 0.03580280308477271
-0.7480696770153764 -0.6628846390184688 -0.03123641598301565
-0.7125301256875336 -0.6927476507071046 -0.1113620780494609
-0.6726033522597452 -0.7109553668515798 -0.2052978248152873
-0.625451949053588 -0.7143943651623456 -0.31376830695492
-0.5680144343324808 -0.6980643253867551 -0.4359653656109457
-0.4982203049387324 -0.6560760436769427 -0.5668692553490321
0 0 0
0 0 0
0 0 0
0 0 0
0 0 0
0 0 0
0 0 0
0 0 0
-0.5832708931872005 0.6684382736572986 -0.4615033471933385
-0.6186317299705136 0.7123168442155445 -0.3315109291116908
-0.6575853064641678 0.7224675232108699 -0.2135936390157178
-0.693133406013008 0.7121413597392965 -0.1114484868334778
-0.72532488389663 0.6879662215236554 -0.02462297388222063
-0.7552794973296592 0.6535991359605756 0.04859064092030205
-0.7836278954656397 0.6114282293954182 0.109921980269988
-0.8106121016217886 0.5629695892451292 0.1611622235186544
-0.8362139496732331 0.5090515995135665 0.2039919101449133
-0.8601955345245015 0.4500781688393408 0.2397775725924593
-0.8821333120175119 0.3862741485834506 0.2695052911635397
-0.9014595189554226 0.3178908990230899 0.2937960380994763
-0.9175170277314784 0.2453616331515719 0.3129858987238663
-0.9296365556585998 0.1693700305968338 0.3272455761638982
-0.9372290754568982 0.09082392234004515 0.3366788904118828
-0.939870792837076 0.01078560417690141 0.3413598739077937
-0.9373638577216696 -0.06959716495899101 0.3413286288415024
-0.929767290407468 -0.1491502319217735 0.3365813334188863
-0.9173965252200676 -0.2267305872143893 0.3270731666394587
-0.9007894648689451 -0.3012918533428557 0.3127324081228964
-0.880638007283024 -0.3719611805464783 0.2934647854429114
-0.8576917290700762 -0.4381127752363849 0.2691135337723744
-0.8326547556186885 -0.4993937348342316 0.2393573804040697
-0.8061010502836812 -0.5556555633425049 0.2035877984017432
-0.7784122840693762 -0.6068025426949134 0.1608259624217559
-0.7497251315944247 -0.6525924659095718 0.109705517152906
-0.7198818821386063 -0.6923974519795302 0.04853704009137298
-0.6883771687223754 -0.7249393145160806 -0.02449211813462482
-0.6542268230306336 -0.7480867322525078 -0.1111463227237316
-0.6159020514579329 -0.7584242904344805 -0.2132070793591614
-0.5731251819799431 -0.7494486056028979 -0.3314427753630004
-0.5335986837607114 -0.7074945158136401 -0.4633831619539696
0 0 0
0 0 0
0 0 0
0 0 0
0 0 0
0 0 0
0 0 0
-0.4627748934715853 0.7262087722365611 -0.5083898278870543
-0.5477936292544553 0.7535294935811606 -0.3634768796657515
-0.5949492233312165 0.7681964844235566 -0.2364520733190346
-0.6314386022496662 0.7651609542067125 -0.1257537504270177
-0.6633033210704128 0.7476962349841082 -0.03128968596118206
-0.6928198985372517 0.7194819234839829 0.0484391367658422
-0.7211922250441931 0.6830223099267504 0.1155954094163414
-0.748974246354007 0.6398152674623068 0.1722614345133099
-0.7762730520749704 0.5906666720964782 0.2202567390494126
-0.8028859554850871 0.535924359378983 0.2610732148440837
-0.8283780394635657 0.4756836461367522 0.2958291610584458
-0.8521284999458165 0.4099745555975737 0.3252658656278951
-0.8733715249701736 0.3389290266787214 0.3497846398083931
-0.8912508627852376 0.2629168386069494 0.3695221719484453
-0.904900419767236 0.1826254440664685 0.384451788244774
-0.9135483604579477 0.09906802697577255 0.3944805687682506
-0.9166261769718446 0.01353036191342669 0.3995164339504343
-0.9138585051977524 -0.07252271840876864 0.399503551664227
-0.905313443456338 -0.1575647290813921 0.3944374795157459
-0.8914012399965956 -0.2401352661339016 0.3843681611311365
-0.8728197767192878 -0.3189630361173031 0.3693889805591446
-0.8504572607893793 -0.3930663637748962 0.3496016035995917
-0.8252736352365656 -0.4618101148438898 0.3250459118513822
-0.7981877177168538 -0.5248976460833118 0.29559910084802
-0.7699896637179965 -0.5822903583571328 0.260871340571876
-0.741279112825122 -0.6340732230828912 0.2201282005070535
-0.7124135382933263 -0.6802912544872406 0.1722520232814676
-0.6834462638122144 -0.7207665821025373 0.1157442810913381
-0.6540301405748918 -0.7548946560095148 0.04877123689084372
-0.6232642694674734 -0.7814056654978176 -0.03077070576195483
-0.5894964441158409 -0.7980287088868939 -0.1250764652806264
-0.5499857561959354 -0.8012308580474488 -0.2356794010814976
-0.4984551227744447 -0.7874992225590642 -0.3624740887964022
-0.4081958550809365 -0.7605869776418647 -0.5048599739891805
0 0 0
0 0 0
0 0 0
0 0 0
0 0 0
-0.3873106368617912 0.724196285615319 -0.57055254839032
-0.4618870078087098 0.7806515497430041 -0.4210030283755236
-0.5202567309437504 0.8070106044740503 -0.2794043989885444
-0.5620372106750883 0.8121832939702027 -0.1564367949437638
-0.5954144763283233 0.801731375672266 -0.05204231587202528
-0.6249838881596073 0.7798171243351365 0.0357825674676475
-0.6530502201087692 0.7493359875294978 0.1096402654551698
-0.6807568468785632 0.7119970510656305 0.1721345831081068
-0.70857697907064 0.6686287934044078 0.2255087611639305
-0.7365423530159676 0.61949070208768 0.2715448991246465
-0.764365375735329 0.5645094611557357 0.3115680353352208
-0.7915054430042545 0.5034643508818761 0.3464719051896261
-0.8172074036289255 0.4361513073616756 0.3767546901377219
-0.8405372182605252 0.362538487295411 0.4025705279182927
-0.8604374227426236 0.2829072948330624 0.4238052666901034
-0.875818398435766 0.1979560216563331 0.440176721841815
-0.8856867321922093 0.1088390304236225 0.4513458517313867
-0.8892921277531809 0.01712496504246001 0.4570188695103454
-0.8862586798427077 -0.07532633251874399 0.4570246120645322
-0.8766626425462816 -0.166550061202946 0.4513576057596293
-0.8610307351600154 -0.2546891189816438 0.4401812419698923
-0.8402575805386406 -0.3381861782571746 0.4237892249493321
-0.8154668027919402 -0.4159141883242971 0.4025286095358084
-0.7878548832342366 -0.4872225483307679 0.3766946659591019
-0.7585544006671942 -0.5518980561182717 0.3464155840624177
-0.7285361812277684 -0.6100593074660247 0.3115488308694701
-0.6985476301711906 -0.6620142869755645 0.271603188903311
-0.6690685240222408 -0.7081052732159494 0.2256861364959421
-0.6402592893033652 -0.7485471221257118 0.1724681084086674
-0.6118757121819662 -0.7832453558494519 0.1101581834548678
-0.5831239484402984 -0.8115626854947524 0.03650298984933623
-0.5524151528154182 -0.8320009531868806 -0.05110687660226911
-0.5168937236115407 -0.8418539993296013 -0.1552505146650114
-0.4714255835104159 -0.8370156067397081 -0.277781916772891
-0.4076587916874774 -0.8116940792711153 -0.4182906062011456
-0.3273707623350249 -0.7565053330154321 -0.566151980555923
0 0 0
0 0 0
0 0 0
0 0 0
-0.4140371580850313 0.7647459893638977 -0.4936970766337426
-0.4505457526076293 0.823798972550387 -0.3440403720962864
-0.4896525909201023 0.8469505505433018 -0.20715961271355
-0.5233409217260198 0.8473981038384589 -0.08961435854785599
-0.5528483307948721 0.8332334606872375 0.008984605082730234
-0.5803310856222473 0.8092358483500378 0.09139569358398487
-0.6072945234978727 0.7780352902682185 0.16079318650596
-0.6345784983691819 0.7408721254013616 0.2200423214083651
-0.6625312726162743 0.698114717395159 0.2714556209801829
-0.6911340744442037 0.6496113440666358 0.316762991528512
-0.7200691522584046 0.5949286161064892 0.3571559291170724
-0.7487509319583532 0.5335303696522095 0.3933413105056138
-0.7763401966530916 0.464939158023807 0.4255907404969613
-0.8017637454993843 0.3889024743988584 0.4537948455075738
-0.8237643734308497 0.305562638779488 0.4775392453486887
-0.8410028488552199 0.2156052968900928 0.4962142321319878
-0.8522190274600334 0.1203438620083279 0.5091562472483224
-0.8564328210794576 0.02169465308325688 0.5158024476536324
-0.8531362188435566 -0.07798301934188349 0.5158267546295383
-0.842412440902041 -0.1761649408960362 0.5092221450531789
-0.8249344825609849 -0.2704905837247618 0.4963042852908656
-0.8018413107508104 -0.3590486014159728 0.4776343938564888
-0.7745376182161107 -0.4405463019178338 0.4538837228130512
-0.7444825473374702 -0.514340384756297 0.4256755869422805
-0.7130192779078893 -0.5803525985768639 0.3934391575031554
-0.6812665494140382 -0.6389174732402044 0.3572958872389128
-0.6500641105403372 -0.6906080595157246 0.3169813248747081
-0.6199476477591954 -0.7360672361625693 0.2717902461197535
-0.5911249677565118 -0.7758470036200525 0.2205282282807536
-0.5634281265174791 -0.8102341632004709 0.1614600477884092
-0.5362208261544215 -0.8390195247600734 0.09226842726333667
-0.5082470859217474 -0.8611522239940123 0.01008696000871611
-0.4774500704472998 -0.8742155106126231 -0.08825344885146649
-0.4410576063195166 -0.873632503391979 -0.2055101869123805
-0.3974620133663001 -0.8514213590255053 -0.3422069802414434
-0.3555956780038464 -0.7941495366439953 -0.4928267720336544
0 0 0
0 0 0
0 0 0
-0.2974198455257117 0.7565898834745093 -0.5823342542831302
-0.3762896795712288 0.8238041579052973 -0.4239726246659392
-0.4183445652206186 0.8652479319219933 -0.2762857959705574
-0.45082072218531 0.8807132888954643 -0.1452748402554596
-0.4789718275293908 0.8771799988889459 -0.03378221399411117
-0.5050145577218091 0.8610625158352752 0.05942760564309508
-0.5304271071029112 0.8365158599127221 0.1374347123725117
-0.5561806600278185 0.8057389006031063 0.2035875670710692
-0.5828350195083862 0.7695956543662075 0.2608176926807445
-0.6106223042431871 0.728114167652075 0.3114324331617795
-0.6394963813531531 0.6808224549927326 0.3571066549560374
-0.6691475881130834 0.6269719417604201 0.398933189353319
-0.6989930338188929 0.5657080906718849 0.4374735361379356
-0.7281571324879433 0.4962363088395122 0.4727966964735175
-0.7554636732200675 0.4180127345813263 0.5045195656985801
-0.7794687169003386 0.3309644322351982 0.5318750454467401
-0.798566111245479 0.2357107064691744 0.5538344778235418
-0.8111845286845952 0.1337218051111328 0.5692961788564637
-0.8160593492578668 0.02733009944459514 0.5773215777650914
-0.8125115279349381 -0.08047238012807981 0.5773640212286816
-0.8006291803462313 -0.1864407556994957 0.569414401110757
-0.78126737802421 -0.2875744955817374 0.554005589796786
-0.7558632957409719 -0.3815350553773619 0.5320730021996875
-0.7261481164320279 -0.4668622483392243 0.504726216951192
-0.6938621933610025 -0.5429715643420259 0.4730086013385289
-0.6605463743460308 -0.6099954677656216 0.4377031147292796
-0.6274294820807103 -0.6685560712143576 0.3992054917687805
-0.5953926373700227 -0.7195375136728288 0.3574540163197103
-0.5649752681789691 -0.7638901163502301 0.3118891413443773
-0.5363889936153872 -0.80246397155406 0.2614161852027452
-0.5095137995862852 -0.8358432326401971 0.2043569878441439
-0.4838594263789436 -0.8641325311999479 0.1384016763851134
-0.4584842677601976 -0.8866327579194564 0.06061789175262752
-0.431887111906934 -0.9013475603528324 -0.03234343851052766
-0.4019359375455495 -0.9043428340755655 -0.1435671987800606
-0.3658051782832363 -0.8893546012622763 -0.274289928278066
-0.3181540702510924 -0.8492044705342459 -0.4214614511521947
-0.2330235052562344 -0.7829418966243408 -0.5768032875325668
0 0 0
0 0 0
-0.3257799715005824 0.7868292722877687 -0.52418232175473
-0.3539848287049332 0.8609718728425902 -0.3652700031766376
-0.3815822962842621 0.8978462030905222 -0.219697853331255
-0.4064620800968851 0.9088539662493597 -0.09366453691830619
-0.429740510788104 0.9028670656298213 0.01241592479740637
-0.4525531095533653 0.8860015084907813 0.1009802455217814
-0.4757602687429234 0.8618894348286096 0.1754957800531985
-0.4999503918654427 0.8323112633233765 0.2393899885513896
-0.5254808497280112 0.7978113981026108 0.2955788382592435
-0.552507206072963 0.7581487783185193 0.3463325239875459
-0.5809858577981244 0.7125899605325469 0.3932823174092631
-0.6106499793158254 0.6601018230359069 0.437461067966343
-0.6409644291827402 0.5995050760084967 0.4793310592507959
-0.6710704136440424 0.5296414347393862 0.5187913362218167
-0.6997407645043882 0.4495935014451523 0.5551833444449691
-0.7253812260617791 0.3589721102124447 0.5873338922339946
-0.74612487815093 0.2582430179876491 0.6136841287379772
-0.7600597892199774 0.1490041336306704 0.632540026379245
-0.76558539402375 0.03407015698651985 0.642431497406854
-0.7618095101716983 -0.08277162286390299 0.6424913452027448
-0.7488215750454786 -0.1973499916675596 0.6327078548075897
-0.7276953894500793 -0.3058575007389754 0.6139304597548524
-0.7002161852788183 -0.4054559083945438 0.5876247103564777
-0.6684728557120811 -0.4945414312414338 0.555493306855995
-0.6344837387826431 -0.5726724841323141 0.5191113667972629
-0.5999528973841342 -0.6402921370592911 0.4796691569617832
-0.5661672488437994 -0.698392606405177 0.4378383419199673
-0.5339942034788426 -0.7482172656851204 0.3937272075710256
-0.5039281632587137 -0.7910333428497732 0.3468755638188021
-0.4761445018291933 -0.8279630241855012 0.2962492936015677
-0.450534750343347 -0.8598345101556517 0.2402145996363414
-0.4267086321689452 -0.8869993934286362 0.1764987798533995
-0.4039579221578029 -0.9090526359365361 0.1021826904264388
-0.3811924821029234 -0.9243922254101229 0.01383131192376001
-0.3568955780587278 -0.9295986465425246 -0.09204293948170333
-0.3292273983665775 -0.9187584647956981 -0.2179270601165121
-0.2967110721084785 -0.8830621081250709 -0.3635434676650681
-0.2625302250952276 -0.8107094091666195 -0.5232859015874202
0 0 0
0 0 0
-0.3070688318041573 0.8273172625364784 -0.4703773800296706
-0.319820313267675 0.8943502104092592 -0.3128141115139782
-0.3378242648141214 0.9254450295614154 -0.1715408504201509
-0.3567605492414379 0.9328137762261188 -0.05079733642343148
-0.3759736338533078 0.9252622636503692 0.05033458166839746
-0.3957645046400949 0.9083802162154319 0.1349660685334841
-0.4165569474874937 0.8852830653644 0.2067708965955132
-0.4386986579902711 0.8573715269393295 0.2691794053624029
-0.4624300095012568 0.8249206892363826 0.3250605217223991
-0.4878768105211115 0.7874723484412678 0.3766477375428414
-0.5150281552491738 0.7440756178622056 0.4255554889830577
-0.5436908878761358 0.6934389738507211 0.4728029272173739
-0.573420576734005 0.634056064415968 0.5188080081835423
-0.6034350621154309 0.564364074649251 0.563346533720622
-0.6325291232341856 0.4829876862866501 0.6054996310123237
-0.6590304430497893 0.3891022507429852 0.6436445553256399
-0.680861841970462 0.2828985334899816 0.6755705528646191
-0.6957817026908139 0.1660367674336041 0.69879869351686
-0.7018270404390095 0.0418663522962931 0.7111160340296252
-0.6978586239812029 -0.08484486623900257 0.7111924420351692
-0.6839616372877051 -0.2087513258705854 0.6990131348308083
-0.6614540876035625 -0.3250485033430314 0.6758860558311536
-0.6324934955233719 -0.430339515151104 0.6440185399661553
-0.5995186092628503 -0.522937133733361 0.6058994894454642
-0.5647801091092292 -0.602661292943429 0.5637577443745859
-0.530076735277604 -0.6703837929608681 0.5192342677952178
-0.4966819333365028 -0.7275511918332571 0.4732613658002522
-0.4653885372843794 -0.7758076046054492 0.4260704988621719
-0.4365999056838489 -0.8167411496905217 0.3772458306715378
-0.4104195512732448 -0.851722698525949 0.3257671511192355
-0.3867142175209446 -0.8817838014488835 0.2700174836367434
-0.3651401770038308 -0.9074737279221228 0.2077596791216612
-0.3451323263115523 -0.928631002751572 0.1361181033639013
-0.3258718854324177 -0.9440021696169748 0.05164705260868956
-0.3062974493552321 -0.950655078364929 -0.04936389872618294
-0.2853730220807765 -0.9431981016470308 -0.1701163699292969
-0.2632585470015139 -0.9129567181294704 -0.3117771130999161
-0.2451215455521668 -0.84746839710377 -0.4708638272542106
0 0 0
0 0 0
-0.2578762142372512 0.8680589867410349 -0.4242327824070065
-0.270388851512974 0.924593742511399 -0.2683584921075886
-0.2858208466228159 0.9491717812261979 -0.1318308513197975
-0.3016682420193508 0.9532771311170116 -0.01609295020416355
-0.317902769855071 0.9446761758704839 0.08077593491375556
-0.3349058329870443 0.9281793881061556 0.1622378085593363
-0.3530366006050119 0.9063801256200419 0.2320349683005855
-0.3725728800119362 0.8803462020922167 0.2935643260708299
-0.3937196876083158 0.8501339993102587 0.3496526716705518
-0.4166107555240021 0.815114940628797 0.4025209459710541
-0.441286642808563 0.7741619352714754 0.4538054614650102
-0.4676458063482262 0.7257562630098239 0.5045644126441461
-0.4953666856707962 0.6680763003835427 0.5552349985306837
-0.5238019134023705 0.5991333631024646 0.6055334579802713
-0.5518577769952577 0.5170257715071077 0.6543220503447301
-0.5778984450509642 0.4203743859009583 0.6995132328169849
-0.5997539271964895 0.3089496744671837 0.7381363867599325
-0.6149409893791323 0.1843675821492292 0.7667177930854745
-0.6211713911278839 0.05053187202473847 0.7820438816037909
-0.6170571405243065 -0.08662238142780591 0.7821362083190762
-0.6026716521012561 -0.2203039663015346 0.7669765590846661
-0.5795675759083888 -0.3445209398335638 0.7385165854412963
-0.5502350312233535 -0.4552937752973094 0.6999635623303245
-0.5173790894148552 -0.5509556961346016 0.6548027937731261
-0.483371856192834 -0.6317322857785758 0.6060247253583549
-0.4499969769080162 -0.6990423641804903 0.5557359929450282
-0.4184267891775276 -0.754854455029578 0.5050878872241769
-0.3893208233956202 -0.8012340399446524 0.4543713345981752
-0.3629568257491418 -0.8400781968419865 0.4031512939738913
-0.3393446453702373 -0.8729759436082353 0.3503686823045955
-0.3183024270582954 -0.9011222286777735 0.2943846020287068
-0.2994894848127844 -0.9252184842949958 0.2329738285847643
-0.2823967276221211 -0.9452960767149831 0.163301609225315
-0.2663035325157994 -0.9603987939754106 0.08195477472474014
-0.2502382058976448 -0.9680705249956649 -0.01484247094472371
-0.2330767435044611 -0.9636456656406971 -0.13062259654919
-0.2142490032520456 -0.9394443817832937 -0.267472649333178
-0.1968107193296542 -0.8838088594661631 -0.4244377936589332
0 0 0
-0.08986225138082142 0.8269914390027134 -0.5549864282962157
-0.176487666660553 0.9045973652705865 -0.3880150902506576
-0.209153968935008 0.949306234571762 -0.2346748607795809
-0.2277334419242676 0.9683932060384545 -0.1017451616927747
-0.2424018233503909 0.9701210561500941 0.01031951794567714
-0.2562676234141237 0.9609862035044887 0.1040789213227435
-0.2704919936833359 0.9451154366193012 0.1832781842367524
-0.2856095554741742 0.924691219945479 0.2517405997799837
-0.3019246709317289 0.9005312259175736 0.3128657926813964
-0.3196447936401383 0.8725326913660502 0.3694778862073749