# OOMMF: rectangular mesh v1.0
# Segment count: 1
# Begin: Segment
# Begin: Header
# Title: 
# Desc: time = 4.999999999999999e-10
# Desc: stepsize = 1.1167723350090426e-13
# Desc: step = 3198
# meshunit: m
# valueunit: (none)
# valuemultiplier: 384000.0000000001
# xmin: 0
# ymin: 0
# zmin: 0
# xmax: 9.357999999999999e-08
# ymax: 9.357999999999999e-08
# zmax: 2.3395e-08
# ValueRangeMaxMag: 1
# ValueRangeMinMag: 0
# meshtype: rectangular
# xbase: 1.16975e-09
# ybase: 1.16975e-09
# zbase: 1.16975e-09
# xstepsize: 2.3395e-09
# ystepsize: 2.3395e-09
# zstepsize: 2.3395e-09
# xnodes: 40
# ynodes: 40
# znodes: 10
# End: Header
# Begin: Data Text
0 0 0
0 0 0
0 0 0
0 0 0
0 0 0
0 0 0
0 0 0
0 0 0
0 0 0
0 0 0
0 0 0
0 0 0
0 0 0
0 0 0
0 0 0
0 0 0
-0.8355272103998724 0.02143180761653353 -0.5490309265457588
-0.8450960850878434 0.04029589152528803 -0.5330936579020448
-0.8552756022393551 0.02140297728606743 -0.5177311626485315
-0.8604410968644223 -0.01316062783619124 -0.5093799335483352
-0.8588362522173397 -0.0521998250806389 -0.5095836242843996
-0.8505612406482119 -0.08706741141614423 -0.518618204246887
-0.8376376216571326 -0.1064657208512112 -0.5357501890510291
-0.8262381323005443 -0.08767759560416795 -0.5564559173569635
0 0 0
0 0 0
0 0 0
0 0 0
0 0 0
0 0 0
0 0 0
0 0 0
0 0 0
0 0 0
0 0 0
0 0 0
0 0 0
0 0 0
0 0 0
0 0 0
0 0 0
0 0 0
0 0 0
0 0 0
0 0 0
0 0 0
0 0 0
0 0 0
0 0 0
0 0 0
0 0 0
0 0 0
-0.7820577675447682 0.2317277646944339 -0.5785221614533134
-0.809801219795418 0.2615074829729281 -0.525200743303945
-0.846541032406097 0.244349982351992 -0.4729285004917761
-0.8828717779916513 0.1962747684271579 -0.4266305648974593
-0.9145773936645837 0.1145873015009871 -0.3878375192428119
-0.9275015747684771 0.07408710474188152 -0.3664040525334834
-0.935465028477792 0.03533327645599922 -0.3516486031110132
-0.9389579869694961 -0.007296911832424944 -0.3439544356217852
-0.9374738265919151 -0.05170994201224639 -0.3441931236271307
-0.9310494740084246 -0.09452132785360791 -0.35243807332555
-0.92021715370381 -0.1335995560866615 -0.3679015474861517
-0.9042281857860383 -0.1743793951339708 -0.3898245946355867
-0.8678391460756791 -0.2555956744126549 -0.4260587609240954
-0.8272333141806649 -0.3045911154943981 -0.4721327104443735
-0.7868742319883688 -0.3230899721659443 -0.5257773415796119
-0.7567355962150916 -0.2945110695401192 -0.5836218530344148
0 0 0
0 0 0
0 0 0
0 0 0
0 0 0
0 0 0
0 0 0
0 0 0
0 0 0
0 0 0
0 0 0
0 0 0
0 0 0
0 0 0
0 0 0
0 0 0
0 0 0
0 0 0
0 0 0
0 0 0
0 0 0
0 0 0
-0.7560468439193231 0.3257499017805854 -0.5676972531988939
-0.7936692034381742 0.354210887646836 -0.4945946245019791
-0.8486968699635529 0.3169629011072175 -0.4233770686229523
-0.8825357953501561 0.2957487820157706 -0.3655998192858618
-0.9124181010528613 0.2625305799675169 -0.3139600348022167
-0.9388995186236746 0.2137563608758781 -0.2697701097477865
-0.9597561147454836 0.1527455939801047 -0.235662860307513
-0.9717629091844349 0.09943091494617354 -0.2139867787653474
-0.9785032229660743 0.04899108818193379 -0.2003280208152482
-0.9810830412727706 -0.001600757151717097 -0.1935807420781096
-0.9796384658710325 -0.05255821040468799 -0.1937681880621939
-0.9741661703346435 -0.1031769636239671 -0.2008850087808248
-0.9644799732175452 -0.153671602214278 -0.2148567428199059
-0.9492890669613255 -0.207045601819563 -0.236605972272194
-0.9247120102992296 -0.2680983913757047 -0.2702423922150562
-0.8945998740548513 -0.3173462362025012 -0.3146147353655731
-0.8613483650347447 -0.3513297239337148 -0.3669419833333756
-0.8243082256544469 -0.3734712273692374 -0.4254823045036443
-0.7654234721980385 -0.4110944659823391 -0.4951042801743822
-0.7249888262816684 -0.3842033882542329 -0.5716458328551824
0 0 0
0 0 0
0 0 0
0 0 0
0 0 0
0 0 0
0 0 0
0 0 0
0 0 0
0 0 0
0 0 0
0 0 0
0 0 0
0 0 0
0 0 0
0 0 0
0 0 0
0 0 0
0 0 0
-0.7604859599619341 0.4064979238232296 -0.5063798402663543
-0.811572006800361 0.4061485795045339 -0.4199931060678063
-0.8512830454853813 0.3961511817785347 -0.3440660076854495
-0.8891962516082876 0.3646904736450635 -0.2762804454866636
-0.9185791233514604 0.3283226480930097 -0.2200377987802451
-0.9430007941116249 0.2846899805384647 -0.1723401209406928
-0.9634356279610546 0.2326268066113963 -0.1329532234324214
-0.9792831726394065 0.1743583655446715 -0.1029739197558699
-0.9897570479941357 0.1163128121957064 -0.08277871504837377
-0.9957673009602177 0.05921110532926348 -0.07029599806595818
-0.9979265874981897 0.002421425849984666 -0.06431689250166332
-0.9964412008523645 -0.05431427246050841 -0.06445845988683543
-0.9913038397555926 -0.1109835828342979 -0.07070602256583527
-0.9822773380816832 -0.1678532732454292 -0.08340569376221907
-0.9686890851125984 -0.2255729793749828 -0.103722164264009
-0.9496055809431923 -0.283482451205468 -0.1337420670547637
-0.9260159996978776 -0.3353197230305284 -0.173363928342286
-0.8985515481960786 -0.3789252561234383 -0.2214063357409087
-0.8660881954278299 -0.4155548672588874 -0.2778585792053449
-0.8247826795208265 -0.4476442865174496 -0.3454679787053045
-0.7817618752889248 -0.4588778694992695 -0.4222315374632198
-0.7274610249783916 -0.4596761134240358 -0.5094097838526074
0 0 0
0 0 0
0 0 0
0 0 0
0 0 0
0 0 0
0 0 0
0 0 0
0 0 0
0 0 0
0 0 0
0 0 0
0 0 0
0 0 0
0 0 0
0 0 0
-0.656332271918643 0.4963305702219224 -0.5682287513856487
-0.7077350740750519 0.5319093726960465 -0.4649553571710714
-0.7877192006256521 0.496894876236172 -0.3641345121461604
-0.8372157771657774 0.4700191968344222 -0.27955625028217
-0.8738096493123757 0.4398199986713321 -0.2074007365882095
-0.904492152421736 0.400877750016861 -0.1455712050816151
-0.9297176493824314 0.3560326008303661 -0.09415879976279741
-0.9507459784463171 0.3056476679574441 -0.0515905760806188
-0.9681396809438402 0.2498209012377983 -0.01717776139934488
-0.9817653564149368 0.1898833750041462 0.009004934229976289
-0.9913447731806578 0.1284380024188692 0.02718860463576076
-0.9970293638294092 0.06670687421840364 0.03850507231434652
-0.9990239756640035 0.004983917937187538 0.04388914000619417
-0.9974335490333139 -0.05665537367421445 0.04377766435800462
-0.992263114949367 -0.1181368467082581 0.03817847771727067
-0.9834161351868254 -0.1793918661919324 0.02666952190015235
-0.9707004600390482 -0.240148592801722 0.008322875424518639
-0.9540062335976718 -0.2992450808081871 -0.01801354681581234
-0.9336921303999323 -0.354188849434638 -0.0526238022704802
-0.9098779474693457 -0.4037637144760857 -0.09537810850212752
-0.8818793201377388 -0.4480191206145733 -0.1468595665155766
-0.8482564403482251 -0.4867703033075058 -0.2086041304137479
-0.8084525029942832 -0.517312920931415 -0.2806989352307652
-0.755123859441886 -0.5448131923063564 -0.3646457765977102
-0.6702394579630174 -0.580281154616675 -0.4626584599747188
-0.6149631897810093 -0.54679179079677 -0.5681892402462643
0 0 0
0 0 0
0 0 0
0 0 0
0 0 0
0 0 0
0 0 0
0 0 0
0 0 0
0 0 0
0 0 0
0 0 0
0 0 0
-0.6354504174540478 0.5425815585820946 -0.5493705664158762
-0.6986050697538935 0.5662409559758802 -0.4374038594819187
-0.7499803290623277 0.571512020726308 -0.3330217953601445
-0.8017456495234742 0.5485114714078713 -0.2373585456733208
-0.8423435015756036 0.5155577556598213 -0.1570274687191978
-0.8746717457298752 0.4762618218448944 -0.09013331390131971
-0.9017645427542852 0.4308619247947564 -0.03433236364295263
-0.9247676714486036 0.3803514318160265 0.0117278369286656
-0.9443390365138098 0.3252397617350223 0.04942551469347137
-0.9607054611288607 0.2659068755131344 0.07961501436302705
-0.9737374263941201 0.2032083562388604 0.1026732116671882
-0.983187685981873 0.1384908008739699 0.1190053452870727
-0.9889280157228014 0.07279186143994255 0.12931637416302
-0.9909245026518175 0.006717312942368461 0.1342516582805655
-0.9891804427148838 -0.05935291433029554 0.134161407680772
-0.9837162832384376 -0.1250959770221466 0.1290475517955602
-0.9745721364539242 -0.1901362646791693 0.1185637031366947
-0.9618335542793441 -0.2538868729844765 0.1020669857913298
-0.9456903113334403 -0.3153605941402334 0.07885132030333532
-0.9264413870257364 -0.3732998060466555 0.04851403107718823
-0.9042050684696903 -0.4269641550136443 0.01071468558599718
-0.8786689587030772 -0.4761209005011894 -0.03535179086815618
-0.8490303833840122 -0.5204405792993333 -0.09104400864071914
-0.8139540310505741 -0.559108354759377 -0.1577234382543793
-0.7701110077386047 -0.59200828323356 -0.2376030899266313
-0.7143888568524496 -0.6156843723672332 -0.3325376893343308
-0.658910315954811 -0.6120868975418571 -0.4372491571014342
-0.5919088202262144 -0.5897878195973055 -0.5493580584582941
0 0 0
0 0 0
0 0 0
0 0 0
0 0 0
0 0 0
0 0 0
0 0 0
0 0 0
0 0 0
0 0 0
-0.5932639514534017 0.5879974713551216 -0.5498152940632681
-0.6618616914873888 0.6156887321488053 -0.4276289120796776
-0.7152080009015248 0.623786354275805 -0.3152270604909159
-0.7592273567301046 0.6143677793285995 -0.2147697662974541
-0.7988105133302886 0.5880826354446563 -0.1267303344959975
-0.8327498219116739 0.5511207818960293 -0.05285468634269008
-0.8618581788306094 0.5070825018701985 0.008235039759752759
-0.8872891588758914 0.4574692553891085 0.05865005468920857
-0.9096575281135519 0.403119610486324 0.1000887665409856
-0.9291883509175847 0.3445026067063753 0.1338916072484432
-0.9458163522455942 0.2820094699479372 0.1609412522770993
-0.9592703532856226 0.2162584602655652 0.1817489138092521
-0.969203770597394 0.1481374152349664 0.1967215221253037
-0.9753272395518408 0.07853584578185664 0.2063223126942744
-0.9774585899719936 0.00820250098190254 0.2109678266172435
-0.9755255560656217 -0.06223059866145517 0.2108962826915059
-0.9695621856904292 -0.1321710148676311 0.206106746391421
-0.9597111754836299 -0.2009897381477301 0.1963608535608249
-0.9462297350709901 -0.2679536305702963 0.1812460767345882
-0.9294808940086917 -0.3322147016594287 0.1603080150028038
-0.9098644768808468 -0.3929584968234527 0.1331549979707665
-0.8876585729744053 -0.4496682401520065 0.09930121662718583
-0.8628794264503976 -0.5020834512749571 0.05789044277305105
-0.8351968796393618 -0.5498986108296753 0.007595396518023458
-0.8038305474238129 -0.5924673701689156 -0.05328101269178147
-0.7673908359828016 -0.628508084051102 -0.1268420006623579
-0.7248274661802128 -0.6546774172948132 -0.2145288408465511
-0.6772620252332148 -0.6649766868536932 -0.3148367118334344
-0.61970296696737 -0.6585134262645329 -0.4269991805158221
-0.546855113960485 -0.6323703954390765 -0.548686766112953
0 0 0
0 0 0
0 0 0
0 0 0
0 0 0
0 0 0
0 0 0
0 0 0
0 0 0
-0.5505865195918013 0.6114166562167354 -0.5683521416732172
-0.6157672648070212 0.6552471153374199 -0.4375864410994353
-0.6685775370013188 0.6734740353407839 -0.3153360124360207
-0.7120234320516373 0.6710307144344873 -0.2067375449572436
-0.7491412366759672 0.6527576805415223 -0.1126712829679941
-0.7824340792991099 0.6218909033366286 -0.03238233929946142
-0.812552207834943 0.5818490555164604 0.03479347837112019
-0.8399593155345026 0.5350589273544305 0.09044496948495827
-0.8650154068677212 0.4828357413578361 0.1364477656427506
-0.8878233549709709 0.425856879550195 0.1744007124637378
-0.9082433786512464 0.3644997309658923 0.2055089079868808
-0.9259460384383659 0.2991019950729205 0.2305687108948093
-0.9404766345526776 0.2301637692642989 0.2500566719336218
-0.9513440673600723 0.15840706239591 0.2642946614706617
-0.9581182686199196 0.0846827222085183 0.27356575059046
-0.9604992844434597 0.009870906648786176 0.2781073350085037
-0.9583525380197044 -0.06515764290726181 0.2780555599910924
-0.951723059562276 -0.1395389387969918 0.2734083072198594
-0.9408366187298504 -0.2124047116971589 0.2640278305516829
-0.9260850720989251 -0.2828879030629688 0.2496815442441919
-0.9079837470793112 -0.3501719317892657 0.2300980947917357
-0.8870879767167744 -0.4135954971420877 0.2049724037726257
-0.8638804504487504 -0.472744817165164 0.1738473617169357
-0.8386738885982624 -0.5273948998840375 0.1359438419339936
-0.8115408991580479 -0.577312256842229 0.0900662372561359
-0.7822512899046835 -0.6220005305770679 0.03461588369960217
-0.7502461708828467 -0.6603694770242007 -0.03229298515791293
-0.7147991024462028 -0.6902565421713136 -0.1122860148540501
-0.6749601444881461 -0.7084902694108579 -0.2060833363051703
-0.6279016996170164 -0.711958235403257 -0.3144120332613588
-0.5705727931421871 -0.6956592420801745 -0.4364686777242548
-0.5009125979279186 -0.6537005460077177 -0.5672408354361613
0 0 0
0 0 0
0 0 0
0 0 0
0 0 0
0 0 0
0 0 0
0 0 0
-0.5841712441163837 0.666908763332372 -0.4625761115081518
-0.6195443290923408 0.7109573972033293 -0.3327227128577015
-0.6585071340190952 0.7212483205624038 -0.2148702271881067
-0.6940542410722343 0.7110367602704939 -0.1127627420457858
-0.7262319613463851 0.6869590377398543 -0.02596957424594109
-0.7561598205801698 0.6526821537750274 0.04720521034543048
-0.7844696687149638 0.6106049635691931 0.1084846409907799
-0.8114060573582674 0.5622542022613083 0.159657201910252
-0.836954680204134 0.5084678127899868 0.2024039195296433
-0.8608828740959666 0.4496573643833788 0.2380943757085845
-0.8827736988229727 0.386052751087714 0.2677197602793155
-0.9020670586320125 0.3179070443372334 0.2919077472280464
-0.9181139211607821 0.2456511665485376 0.3110021417034217
-0.930252545364157 0.1699621413752133 0.3251815990222359
-0.9378996757715883 0.09173699689547579 0.3345572022661421
-0.9406343040634915 0.01202406574388143 0.3392086789307977
-0.9382575164486499 -0.0680443841902974 0.3391795904941423
-0.9308232076299955 -0.1473091893433759 0.3344669772524684
-0.91863820071342 -0.224639853288692 0.325024295252593
-0.9022295784829489 -0.2989985173367737 0.3107759230392383
-0.8822778851122456 -0.3695161762018564 0.2916222367499111
-0.8595224633688359 -0.4355663982834299 0.2674005378655174
-0.8346595455443074 -0.4967920154969383 0.2377838017406973
-0.8082581715958347 -0.5530376758011623 0.2021584952283882
-0.7806981909379609 -0.6041992238107369 0.1595419462483061
-0.752117359831266 -0.6500253954286885 0.108565474890603
-0.7223614388116701 -0.6898796896751612 0.04753909435019368
-0.6909302016977413 -0.7224769192533388 -0.02534871847100814
-0.656845906842969 -0.7456813832658865 -0.1118603116136878
-0.6185876921661834 -0.7560750846239774 -0.2137749599727711
-0.5758834433087792 -0.7471496668964077 -0.3318518268435641
-0.5364284988130017 -0.7052261732928259 -0.4635736297115981
0 0 0
0 0 0
0 0 0
0 0 0
0 0 0
0 0 0
0 0 0
-0.4638461411345758 0.7246846316053982 -0.5095870309078819
-0.548883872856502 0.7521479195460017 -0.3646916522771915
-0.5960584035047076 0.7669488009621434 -0.2377055243660713
-0.63255835733661 0.7640238370345588 -0.1270334641210686
-0.6644218052163742 0.7466468145462987 -0.03259139581053289
-0.6939241252736839 0.7185054682983089 0.04710838978971688
-0.7222692644350438 0.6821148961124366 0.1142207430985274
-0.7500121418579356 0.6389843886234742 0.1708237049157887
-0.7772619529686489 0.5899310029715261 0.2187356125562788
-0.8038195692548528 0.5353128542554345 0.2594498952627308
-0.8292553708774857 0.4752338868853008 0.2940889025902404
-0.85295569830828 0.4097301897286144 0.3234002912002206
-0.8741634984575418 0.338936113623194 0.3477937446914131
-0.8920321678280215 0.2632191061124737 0.3674157233126937
-0.9057048894398447 0.183258785413857 0.3822497492653142
-0.9144170502635675 0.1000550443702158 0.3922122464729392
-0.9176035757387012 0.01487604911616971 0.3972183039013213
-0.9149874937280352 -0.07083304460439604 0.3972160194571206
-0.9066299909113753 -0.155564606864996 0.3922011125315404
-0.8929300349850304 -0.2378734345958896 0.3822200697702657
-0.8745717607296345 -0.3164978161318924 0.3673599974384926
-0.8524294620243732 -0.39045935152358 0.3477146920689754
-0.8274510420899572 -0.4591204803593568 0.3233158787607509
-0.8005464914873623 -0.5221778317731809 0.2940333773093343
-0.7725008821674565 -0.5795834394092062 0.2594714315933369
-0.7439124362477586 -0.6314117586054452 0.2188914760576635
-0.7151404246440789 -0.6776974058400376 0.1711735936339741
-0.6862425723628148 -0.7182532904680766 0.1148187380554555
-0.6568781149634224 -0.7524677580691378 0.0479939074102739
-0.6261541007050004 -0.7790666622944392 -0.03140346910316649
-0.5924275771040639 -0.7957776738553144 -0.1255685457430825
-0.5529677377618559 -0.7990695455082397 -0.2360392815524351
-0.5015115766884055 -0.785436345842067 -0.3627339039540828
-0.4113947276371274 -0.7586497397727445 -0.505178137309128
0 0 0
0 0 0
0 0 0
0 0 0
0 0 0
-0.3885802720842886 0.7226005240971101 -0.5717113386329516
-0.4631611063518026 0.7792310801034918 -0.4222330083777424
-0.5215463231703137 0.8057415105841975 -0.2806600272732503
-0.5633433326198524 0.8110328127811064 -0.1577024609355377
-0.596731120963838 0.8006681762230282 -0.05331454639149408
-0.626301345851903 0.7788174570555478 0.03449627182209887
-0.6543570728664335 0.7483867837531801 0.1083237882149766
-0.6820409981273466 0.7110970230016688 0.1707662166577925
-0.70982652615799 0.6677886202976339 0.2240639671242617
-0.7377467615627584 0.6187328601946226 0.269998821328989
-0.7655171323800242 0.5638676591600162 0.3098980203003364
-0.7926021711100939 0.5029822656685484 0.34466017868982
-0.8182542679689772 0.4358801862203027 0.3747911634645443
-0.841549209947713 0.3625332268454647 0.4004554740160187
-0.8614408876161518 0.2832208187838433 0.4215513787790351
-0.8768510061415372 0.1986323102495665 0.4378099112097544
-0.8867951903013264 0.1099058246777249 0.4489042215889074
-0.8905274306581291 0.01858780980306727 0.4545496546826931
-0.8876695307685456 -0.07348695619268257 0.4545794445580267
-0.8782885280857127 -0.1643773740379734 0.448987015778198
-0.8628964687177252 -0.2522446393883243 0.4379295904301665
-0.8423706694578197 -0.3355417261059611 0.4216911254449353
-0.8178179795305017 -0.4131434163599911 0.4006073762114751
-0.7904211664878809 -0.4843938015339428 0.3749626976159527
-0.761303535166993 -0.5490695689786741 0.344876116545944
-0.7314313561434281 -0.6072768228585602 0.3101983747039915
-0.7015517272333619 -0.6593106903542807 0.2704340725582634
-0.6721475751357516 -0.7055016496373654 0.2246888061254597
-0.6433851128591263 -0.7460547812076868 0.1716329222159879
-0.615027913067465 -0.7808684694031162 0.1094764798480152
-0.5862915572625154 -0.8093012908717321 0.03596707488859932
-0.5555982263575929 -0.8298540879315834 -0.05150537458883081
-0.5201052453434822 -0.839822850140149 -0.1555252845960177
-0.4746944874944362 -0.835105921875836 -0.2779626643819342
-0.4110318558205652 -0.8099139039323279 -0.4184402964794346
-0.3308812027805659 -0.7548439427106847 -0.566328748872485
0 0 0
0 0 0
0 0 0
0 0 0
-0.4154933928200955 0.7632371443752829 -0.4948073382324769
-0.4520113422366491 0.8224818207113096 -0.3452671445255567
-0.4911350511875792 0.8457831105658902 -0.208416149509726
-0.5248411208870762 0.8463357049411538 -0.090871735802488
-0.5543626379031389 0.8322393554633307 0.007727930838998378
-0.5818526546658525 0.8082850532961339 0.0901263606075708
-0.6088142071288046 0.7771154713591323 0.1594892014288053
-0.6360855592939075 0.7399835429517744 0.2186767418320837
-0.6640142064323307 0.6972701145629704 0.2699991129492537
-0.6925818353502701 0.648835970339991 0.3151861115845898
-0.7214729537055021 0.594260141276568 0.3554316552607703
-0.7501066876234261 0.533018153428247 0.3914480876164209
-0.7776514696991769 0.4646421968079172 0.4235160216806705
-0.8030447977245746 0.3888853066220741 0.4515387814362701
-0.8250425154782444 0.3058887693915728 0.4751177837267718
-0.8423189763636673 0.21632835515815 0.4936605967790343
-0.8536252123958323 0.1214978165958781 0.5065197699247326
-0.8579864575138757 0.0232854907681701 0.5131442532490013
-0.8548915000724484 -0.07598129196466399 0.5132127885928593
-0.8444113635060182 -0.173808106075031 0.5067150988913962
-0.8272001332899429 -0.2678561409512362 0.4939565033885182
-0.8043753213974444 -0.3562243967319531 0.4754834608056452
-0.777321942307916 -0.4376192095753355 0.4519513529322673
-0.7474842582837793 -0.5113876452716692 0.4239692912009607
-0.7161965905525997 -0.5774368265343015 0.391955552381678
-0.6845745808925381 -0.6360850706783722 0.35602447395635
-0.6534595841899037 -0.6878900621975577 0.3159079520369782
-0.623392339462715 -0.7334816078039614 0.2708998377860685
-0.5945880959537465 -0.7734015960742183 0.2198066589981967
-0.5668880411728627 -0.8079298963046281 0.1608950944944776
-0.539666394360663 -0.8368535165103528 0.0918497398037542
-0.5116790389934179 -0.859120728535519 0.009804838365348661
-0.4808822488334482 -0.8723163482443795 -0.0884106969912295
-0.44451696690901 -0.8718657564394172 -0.2055596479816416
-0.4009827728894831 -0.8497845325769116 -0.3421681809270121
-0.3591960309826032 -0.7926196131972747 -0.4926787595394655
0 0 0
0 0 0
0 0 0
-0.2990456760565589 0.7550573441131868 -0.5834895806547157
-0.3779195316291946 0.8224416122346112 -0.4251665815631596
-0.4199898941961162 0.86405377504676 -0.2775239856311115
-0.4524875325917823 0.8796512195172069 -0.146522233298878
-0.4806623457871662 0.876206107377831 -0.03502237479335969
-0.5067279314343556 0.8601399005111823 0.05819067840188747
-0.5321595448738347 0.8356197344503269 0.1361832522626683
-0.5579256392757248 0.8048574580117017 0.2022954604575081
-0.5845836795514902 0.768729859923401 0.2594538958354415
-0.6123641434687145 0.7272777402065721 0.3099632952364663
-0.6412204157001093 0.6800422801718248 0.3554980670384631
-0.6708441657643184 0.6262886034192761 0.3971532330059869
-0.7006564409424904 0.5651758699626318 0.4354960249850559
-0.7297889796385735 0.49592170158066 0.4706056853666685
-0.7570766935298119 0.4179904023789985 0.5021144328069146
-0.7810900851173178 0.3313096685130039 0.5292751481802485
-0.8002387938719714 0.2364883563728507 0.5510817816643908
-0.8129649538496748 0.1349731616639349 0.5664540841433104
-0.8180103661668556 0.02906127723296243 0.5744688703569192
-0.8146915232097005 -0.07829608792301584 0.5745845843965958
-0.8030805471338353 -0.1838913446911893 0.5667853281118744
-0.7840085045255312 -0.2847491974696769 0.5515873089294336
-0.7588866418263572 -0.3785401904320236 0.5299041319759648
-0.7294240259707069 -0.4637983906727451 0.5028236700335982
-0.6973460534762922 -0.5399234839884227 0.4713715234704394
-0.6641864274355096 -0.6070276440892768 0.4363184948198694
-0.6311734800269552 -0.6657126349366987 0.3980536720045424
-0.5991926328850044 -0.7168448885493444 0.3565131055894212
-0.5687906576456562 -0.7613608128540633 0.3111380729277937
-0.5401882933511655 -0.8001005725430536 0.2608365034703395
-0.5132757312067877 -0.8336420742643467 0.2039336062800199
-0.4875737691527984 -0.8620869600321196 0.1381227460511535
-0.4621527251740015 -0.8847359910019468 0.06047383599579549
-0.4355240095649467 -0.8995952120890233 -0.03236188311852201
-0.4055678867785292 -0.9027349670615974 -0.1434721870548222
-0.3694682303137788 -0.8878971366335745 -0.2741019911396185
-0.3218904277923316 -0.8479118045064686 -0.4212269272900926
-0.23689985601683 -0.781852375933061 -0.5767021072157027
0 0 0
0 0 0
-0.3275769316135593 0.7853807062156284 -0.5252337576535666
-0.3557817903097838 0.8597267739674797 -0.3664548973713329
-0.3833970743352839 0.896770704762503 -0.2209275593286353
-0.4083050594310976 0.9078996800990367 -0.0948954652184936
-0.431617517909443 0.9019872240444432 0.0111966912206507
-0.4544667333348053 0.8851592899565875 0.09976482193408731
-0.4777100715821566 0.8610606474211567 0.174263160110301
-0.5019329337563827 0.8314844952577649 0.2381110332526612
-0.5274898965097148 0.7969877341957137 0.2942192390408076
-0.5545342463678298 0.7573420238363977 0.3448547934082565
-0.5830210801292246 0.7118275362946699 0.3916477737682319
-0.6126839100398669 0.6594260242219347 0.435632580229156
-0.6429904751142866 0.5989739608923057 0.4772771135150793
-0.6730884265941124 0.5293281932284316 0.516491659021311
-0.7017614111383159 0.4495827506348784 0.5526357499915614
-0.7274302529754327 0.3593515715905285 0.5845610960810808
-0.7482454712671499 0.2590899014077166 0.6107381908123476
-0.7623105837488896 0.1503678389453774 0.6295014590255716
-0.7680323100064456 0.03595612081291096 0.6394009134824955
-0.7645121993267872 -0.08040983568507022 0.6395743548686252
-0.7518190236919838 -0.1946050567615027 0.6299976408667606
-0.7309968790103636 -0.3028503367045307 0.6114942652511628
-0.7038009319387538 -0.4023130505332062 0.5854984693172193
-0.6722968746550754 -0.4913761634955888 0.5536843670155168
-0.6384898636934827 -0.5695740814619674 0.5176060854428139
-0.6040802600047611 -0.6373230080529235 0.4784416608939407
-0.5703582940811435 -0.6955907858625722 0.4368579574597861
-0.5381989578789063 -0.745601404170247 0.3929636469667578
-0.508106353052946 -0.7886082012566457 0.3463019475804206
-0.4802663753071714 -0.8257244095713827 0.2958435535672557
-0.454581338935838 -0.857773346756494 0.2399597713898388
-0.4306719572193921 -0.8851049940901787 0.1763825804932057
-0.4078413409939815 -0.9073154454740173 0.1021964920166816
-0.3850110176195833 -0.9228062632407183 0.01396842278978631
-0.3606756387678326 -0.9281635995688108 -0.09179006501187137
-0.3330050739921886 -0.9174805058478225 -0.2175710046965821
-0.3005285651795689 -0.8819503911029857 -0.363106167868847
-0.2664272545788003 -0.8097594854118423 -0.5227868531276881
0 0 0
0 0 0
-0.3090046541276023 0.8259949713426861 -0.4714323186249276
-0.3217642211021868 0.8932362140492678 -0.3140013565725999
-0.3397955442975329 0.9244955095387566 -0.1727629616503994
-0.3587714874298352 0.9319752029560902 -0.05201193019238538
-0.3780330041402784 0.9244872496112078 0.04913627058477339
-0.3978783628719499 0.9076330145189181 0.1337726403777606
-0.4187285520190966 0.8845405570486685 0.205558757196138
-0.4409283296049029 0.8566227824759797 0.267917182530236
-0.4647151835940151 0.8241666685723722 0.3237114464326181
-0.4902123691919015 0.7867263818032105 0.3751712052731275
-0.5174071355945932 0.7433647822452816 0.4239087832933198
-0.5461057885653229 0.6928060718286405 0.4709439611384937
-0.5758655520909239 0.6335614882554078 0.516699822444916
-0.6059092855919546 0.5640862299023237 0.5609640477499689
-0.6350412890587777 0.4830199886269564 0.6028384956000904
-0.6616036561736252 0.3895443129827111 0.6407307003418197
-0.6835369217145812 0.2838399526307796 0.6724672170028144
-0.6986157710278281 0.1675348227221843 0.6956062734382423
-0.7048845065807609 0.04392403373479709 0.707960812222584
-0.7011950112588008 -0.08228974045623973 0.7082047407363313
-0.6876064221630811 -0.2058171365376229 0.6963021718388789
-0.6654015152523427 -0.3218832348698479 0.6735220906619234
-0.6367052327133609 -0.4270897822012336 0.6420286322078845
-0.6039346724067868 -0.5197254694494781 0.6042750597785963
-0.5693317654771163 -0.5995761955994168 0.5624675337201598
-0.5346968905544303 -0.6674801966472323 0.5182368399826427
-0.5013115222882724 -0.7248565712800028 0.4725142417887659
-0.4699794406446394 -0.7733297255499144 0.4255354990506024
-0.4411156420245559 -0.8144751649730068 0.3768914910202358
-0.4148349108906 -0.8496567818830725 0.3255692702121753
-0.3910146628930636 -0.8799033155422056 0.2699586796168204
-0.3693214514410596 -0.9057643252734642 0.207828420980805
-0.3492003950066188 -0.9270811055774876 0.1363074018842851
-0.329843007330714 -0.9426051736052586 0.05195264389451332
-0.3101978580195275 -0.9494111678170887 -0.04894612655040229
-0.2892373839345768 -0.9421145279845674 -0.1695934901318364
-0.2671262361974458 -0.912043453499558 -0.3111596260178776
-0.2490299206923203 -0.8467243455127259 -0.4701510196905053
0 0 0
0 0 0
-0.2599400040301331 0.8668889242029432 -0.4253642996292444
-0.2724707681996718 0.9236279085260194 -0.2695759022400397
-0.2879411126523865 0.9483597635683849 -0.1330551558152557
-0.303840984922199 0.9525657641434947 -0.01729511096313961
-0.3201400142047984 0.9440204830225202 0.0795971038347409
-0.3372175988534896 0.9275460898090689 0.1610668876690452
-0.3554305046194313 0.9057478600775257 0.2308462049741313
-0.3750539003171222 0.8797048985448525 0.2923249276628742
-0.3962901694680604 0.8494846526303285 0.3483244558289089
-0.4192706189860628 0.8144703187726583 0.4010614016499311
-0.4440338476080438 0.773548325192059 0.4521691395605809
-0.4704772342593032 0.7252160460299405 0.5027055386848402
-0.4982797540278834 0.6676706842343224 0.5531122346685011
-0.5267972653467845 0.5989438937103545 0.6031176115901676
-0.5549432384268549 0.5171522369390131 0.651606910608911
-0.581093756109995 0.4209258835575764 0.6965281380972707
-0.6030944296755939 0.3100259921858564 0.7349564565764728
-0.6184767478108857 0.1860315119200511 0.7634649887126516
-0.6249578541707032 0.0527804037924597 0.7788722035647788
-0.6211371205720155 -0.08387230666371411 0.7792009455990236
-0.6070564654325039 -0.2172012847013856 0.7643991429225062
-0.584229586400861 -0.3412419256368291 0.7363625048585425
-0.5551151410646824 -0.4520014547912918 0.6982419817135694
-0.5224021733937453 -0.5477748259950521 0.6534819884584279
-0.4884615294921706 -0.6287428565042101 0.6050518610839031
-0.4550852966358782 -0.6962853574544436 0.5550532170705539
-0.4234586476758438 -0.7523423872220029 0.5046421564808504
-0.3942547045107406 -0.7989613692159099 0.4541188814306075
-0.3677637612165346 -0.8380295634962727 0.4030586392103681
-0.3440066868298499 -0.8711319612195271 0.3504119084137539
-0.3228113597049413 -0.8994633663956836 0.294547922344719
-0.3038460819447248 -0.9237277408312248 0.2332479781384624
-0.2866105439343746 -0.9439611078925297 0.163682078713428
-0.2703930047430657 -0.9592139131560057 0.08243962514445695
-0.254230581799877 -0.9670385637788552 -0.01425578627169853
-0.2370071191290578 -0.9627786730638906 -0.1299417260754896
-0.2181577162157025 -0.9387601330246511 -0.2667144981044104
-0.2007398554017578 -0.883316592231403 -0.4236216570738348
0 0 0
-0.09203962046343166 0.8258139772725752 -0.556381149218948
-0.1786854303293055 0.9036110941769638 -0.3893051598275321
-0.2113770730286117 0.9485002642055982 -0.2359385127522992
-0.2300004929271118 0.9677271323798833 -0.1029755821012577
-0.2447312502227136 0.9695479816289959 0.009128334106895062
-0.2586764729708396 0.9604655486292671 0.1029194453329721
-0.2729953558264115 0.9446171976754274 0.1821315062064564
-0.2882202475651479 0.9241963475010708 0.2505797281488745
-0.3046532076006378 0.9000310604361726 0.3116576861699071