# OOMMF: rectangular mesh v1.0
# Segment count: 1
# Begin: Segment
# Begin: Header
# Title: 
# Desc: time = 6.799999999999999e-10
# Desc: stepsize = 8.458346444322862e-14
# Desc: step = 4350
# meshunit: m
# valueunit: (none)
# valuemultiplier: 384000.0000000001
# xmin: 0
# ymin: 0
# zmin: 0
# xmax: 9.357999999999999e-08
# ymax: 9.357999999999999e-08
# zmax: 2.3395e-08
# ValueRangeMaxMag: 1
# ValueRangeMinMag: 0
# meshtype: rectangular
# xbase: 1.16975e-09
# ybase: 1.16975e-09
# zbase: 1.16975e-09
# xstepsize: 2.3395e-09
# ystepsize: 2.3395e-09
# zstepsize: 2.3395e-09
# xnodes: 40
# ynodes: 40
# znodes: 10
# End: Header
# Begin: Data Text
0 0 0
0 0 0
0 0 0
0 0 0
0 0 0
0 0 0
0 0 0
0 0 0
0 0 0
0 0 0
0 0 0
0 0 0
0 0 0
0 0 0
0 0 0
0 0 0
-0.8371280589533121 0.02209401396884637 -0.546560579862657
-0.8467142674679918 0.04059181613796849 -0.5304971759856624
-0.8569008498899393 0.02137561599312395 -0.5150378787029296
-0.8620661199279722 -0.01349821961908591 -0.5066160310722955
-0.8604549390619428 -0.05284944001214081 -0.5067782893280955
-0.852167563139982 -0.0880419184215661 -0.5158091361469999
-0.8392253215954675 -0.1077909762233694 -0.5329934005574518
-0.827801180979883 -0.08940163384226829 -0.5538524646822863
0 0 0
0 0 0
0 0 0
0 0 0
0 0 0
0 0 0
0 0 0
0 0 0
0 0 0
0 0 0
0 0 0
0 0 0
0 0 0
0 0 0
0 0 0
0 0 0
0 0 0
0 0 0
0 0 0
0 0 0
0 0 0
0 0 0
0 0 0
0 0 0
0 0 0
0 0 0
0 0 0
0 0 0
-0.7831305408138466 0.2332159557929633 -0.5764693174906935
-0.8108884535923333 0.2626937699961127 -0.5229262845142353
-0.8476331906803581 0.2452766571149126 -0.4704862756038359
-0.8839610268833794 0.1969744612497959 -0.424044767172799
-0.9156635714049896 0.1150924819542203 -0.3851154951433092
-0.928595254386532 0.07431252108925945 -0.3635773683002968
-0.9365578694651893 0.03526671653850236 -0.3487343055212917
-0.9400425289678672 -0.007657469805191322 -0.3409712698863033
-0.9385442511162204 -0.05236791137976116 -0.3411631436049531
-0.9321006761888102 -0.09548222927333994 -0.3493872827413093
-0.9212435892014159 -0.1348670964366223 -0.364857664924347
-0.9052224023062418 -0.175941607660094 -0.3868035070380014
-0.8688007360120951 -0.2573746447615523 -0.4230172258179397
-0.8281693878511643 -0.3066487478172989 -0.4691503069255202
-0.7877771980403491 -0.3254796923909562 -0.5229436452322415
-0.7576015347524995 -0.2972874984000974 -0.5810852414540134
0 0 0
0 0 0
0 0 0
0 0 0
0 0 0
0 0 0
0 0 0
0 0 0
0 0 0
0 0 0
0 0 0
0 0 0
0 0 0
0 0 0
0 0 0
0 0 0
0 0 0
0 0 0
0 0 0
0 0 0
0 0 0
0 0 0
-0.756669084218774 0.3275505532967757 -0.5658290660813539
-0.7942982139971974 0.3557466549201042 -0.4924780855571322
-0.8493307594099807 0.3183032321295434 -0.4210941860628699
-0.8831722478506099 0.2968512642715272 -0.3631612693100627
-0.9130513017412366 0.2633969953211434 -0.3113829527196796
-0.9395263594499379 0.2143955472911573 -0.267066975121355
-0.9603786731170186 0.1531577713529519 -0.2328422240406389
-0.9723858247732474 0.09958527640219089 -0.2110653465255481
-0.9791201154745399 0.04887150236152924 -0.1973204898890383
-0.9816846779334488 -0.002001703049783134 -0.1905024574529174
-0.9802157023126263 -0.05324410436783724 -0.1906364138611266
-0.9747104286168194 -0.1041482854867827 -0.1977187774992021
-0.9649831772815387 -0.1549235335198207 -0.2116746709584284
-0.9497448478092724 -0.2085642545303049 -0.2334216694995552
-0.9251222568791522 -0.2698627952699279 -0.267063441069578
-0.8949741173534383 -0.3193758751779157 -0.3114809458406305
-0.8616888460157389 -0.3536460454340983 -0.3639049425342931
-0.824611194861986 -0.3760773161699167 -0.4225899070857224
-0.7656714243295104 -0.4139444567757026 -0.4923385589915606
-0.7251958973881 -0.3873989562578689 -0.5692213621270563
0 0 0
0 0 0
0 0 0
0 0 0
0 0 0
0 0 0
0 0 0
0 0 0
0 0 0
0 0 0
0 0 0
0 0 0
0 0 0
0 0 0
0 0 0
0 0 0
0 0 0
0 0 0
0 0 0
-0.7607189820753006 0.4083546641596738 -0.5045325545188913
-0.8118043033558454 0.4077985538087071 -0.417940321773883
-0.8515107358785935 0.3975854776971777 -0.3418409785379785
-0.8894226336374373 0.3659223655521238 -0.2739127619556668
-0.9188087981633292 0.3293420781699766 -0.2175412327912544
-0.9432332971647098 0.2854909300153936 -0.1697229389291121
-0.9636692136403859 0.2332042527344277 -0.1302206711251972
-0.9795167275581452 0.1747019541794117 -0.1001309524556539
-0.9899882288145428 0.1164032931586589 -0.079834705175524
-0.9959873346429168 0.05903332132525195 -0.06726288875901359
-0.998123052246768 0.001966585743011178 -0.06120870129410007
-0.9966007118342936 -0.05504921591606409 -0.06129114942962963
-0.9914136512186839 -0.1119961393314543 -0.06749694031648276
-0.9823266733980471 -0.1691351949452227 -0.08017226803307444
-0.9686713386416989 -0.2271112110068077 -0.10048052313319
-0.9495217153359804 -0.2852647819408057 -0.1305086828133711
-0.9258731110013071 -0.3373467969395314 -0.1701649814720969
-0.898355740045585 -0.3811996432858376 -0.2182745891896237
-0.8658437085853986 -0.4180726264455581 -0.2748271298834878
-0.8244934864285393 -0.4503978491891218 -0.3425671733875337
-0.7814394991047977 -0.4618897345378213 -0.4195356747255506
-0.7270956388275482 -0.4629421828831359 -0.506967915459505
0 0 0
0 0 0
0 0 0
0 0 0
0 0 0
0 0 0
0 0 0
0 0 0
0 0 0
0 0 0
0 0 0
0 0 0
0 0 0
0 0 0
0 0 0
0 0 0
-0.6562282685158848 0.4983719178067312 -0.5665596977744568
-0.707623528169419 0.5337163121584958 -0.4630505809487749
-0.7875892685266502 0.498566367108049 -0.3621252845222732
-0.8370784060211651 0.4715262211340113 -0.2774216375053399
-0.8736725759409268 0.4411495947476715 -0.2051420607840081
-0.904362570866713 0.4020248233690459 -0.1431935117609601
-0.929601176406608 0.3569863640134869 -0.09166454457356975
-0.9506433800675007 0.3063953027567778 -0.04898042856508249
-0.9680480495633237 0.2503479732381328 -0.01445219817893406
-0.9816791992891535 0.1901727695925015 0.01184345340359402
-0.9912553963946695 0.1284707184835737 0.03013326419025752
-0.9969233315622553 0.06646731768679263 0.04154475497985053
-0.9988844854372729 0.004462738309262971 0.04700924078834627
-0.9972426841805107 -0.05746040005765378 0.046960954778029
-0.9920040024344604 -0.1192207799363131 0.04140609599307532
-0.9830750393719158 -0.1807432712328859 0.02992218020032881
-0.9702690326022471 -0.2417516619038113 0.01158181073254387
-0.9534833343955621 -0.3010838175407152 -0.01476705268593291
-0.9330828025818585 -0.356251369402972 -0.04941098384459731
-0.9091901816096717 -0.4060396637583349 -0.09222258465034265
-0.8811230699614937 -0.4504973988355578 -0.1437853581698372
-0.8474440326179828 -0.489441363565129 -0.2056350242825324
-0.8075971475941012 -0.5201727594954422 -0.277861741657192
-0.7542290918487714 -0.5478459162722117 -0.361943820271652
-0.6692962362875864 -0.5834534805360598 -0.4600267211169679
-0.6139816324215971 -0.5502599698612126 -0.5658979772160768
0 0 0
0 0 0
0 0 0
0 0 0
0 0 0
0 0 0
0 0 0
0 0 0
0 0 0
0 0 0
0 0 0
0 0 0
0 0 0
-0.6350285340869244 0.5446637578410899 -0.547795720857542
-0.6981735388524732 0.5681359763801219 -0.4356319799886355
-0.7495301489939357 0.5732192780694639 -0.3310954771642927
-0.8012812205855993 0.5500643003776535 -0.2353246076951874
-0.8418779155529121 0.5169624962437132 -0.1548914225570666
-0.8742170817513338 0.4775139269350993 -0.08789165806378746
-0.901329807090831 0.4319512603885357 -0.03197948558623248
-0.9243580220806032 0.3812619409706687 0.01419786542099603
-0.943954370255334 0.3259514137400671 0.05201752355415314
-0.9603405819387177 0.266397283379984 0.0823313675907842
-0.9733825538085663 0.203454094814346 0.1055122516316848
-0.982828517746397 0.1384696670625322 0.1219600590685771
-0.9885457835082094 0.07248641451403928 0.1323742936488755
-0.9904973474746358 0.006117588251014164 0.1373957050263984
-0.988685665125964 -0.06024807891934933 0.1373711198212976
-0.9831328712262487 -0.1262787935187265 0.1323005057506828
-0.9738832644285911 -0.1915910487326459 0.1218370112545252
-0.9610287785786136 -0.2555923944333999 0.1053385715277122
-0.9447668278614356 -0.3172935008785921 0.08210039751941839
-0.925403468414812 -0.3754376033914488 0.05172065936857983
-0.9030623230103026 -0.4292858589869115 0.01385972702127679
-0.8774351419554641 -0.4786075531741563 -0.03228593666351953
-0.8477223865197678 -0.5230773505453035 -0.08807292852933964
-0.8125893106168298 -0.5618867693567579 -0.1548608107078418
-0.7687030552402246 -0.5949262851866097 -0.2348581019645781
-0.7129455354547543 -0.6187555425854145 -0.3299246004695048
-0.6574409891853217 -0.6153615963586984 -0.4348579670029047
-0.5903910378939173 -0.5932681164613146 -0.5472397686252217
0 0 0
0 0 0
0 0 0
0 0 0
0 0 0
0 0 0
0 0 0
0 0 0
0 0 0
0 0 0
0 0 0
-0.5925535921824252 0.5900980055522168 -0.5483289015134982
-0.6611388117513742 0.6176155034496343 -0.4259654463623019
-0.7144648169346592 0.6255440631676376 -0.3134240743756703
-0.7584680080874141 0.6159695418181494 -0.2128562995550014
-0.7980458356105081 0.5895479659057697 -0.1247238556215058
-0.8319941182407338 0.5524579552174933 -0.05075426021261011
-0.8611243479228193 0.5082871994893876 0.01043936059986095
-0.886586402276164 0.4585271219983196 0.06097072814839116
-0.9089902275896796 0.404008509327358 0.1025372641411302
-0.9285550584203508 0.3451951979115325 0.1364762939883566
-0.9452094646235837 0.2824757598434475 0.1636658580366244
-0.9586762179793838 0.2164684662883871 0.1846112460916111
-0.9686030306056242 0.1480642983670682 0.1997126251659296
-0.9746956586391221 0.07815939561504244 0.2094265549235302
-0.9767688556227379 0.007511954802198572 0.214163893363228
-0.9747498985442746 -0.06323496339250766 0.2141587604854717
-0.9686753697517912 -0.1334777520922559 0.2094080173551826
-0.9586933772729407 -0.2025775519877231 0.1996730923376095
-0.9450688025981253 -0.2697940590847024 0.1845430140599884
-0.928173449011957 -0.3342755987345792 0.1635661109150845
-0.9084155310005526 -0.3952073466695393 0.1363538638081293
-0.8860801524339047 -0.4520744756732629 0.1024237858480732
-0.8611889961497202 -0.5046205310716998 0.06092316908658202
-0.8334155396507777 -0.552546556571047 0.01052810952074986
-0.8019804875276686 -0.5952154753866618 -0.05045627300061727
-0.7654924348339476 -0.6313573704467369 -0.1241338108436841
-0.7228972507381484 -0.6576432954851491 -0.2119548555203655
-0.6753110588453572 -0.6680850262750867 -0.3124377881565839
-0.6177250979650597 -0.6617764503103529 -0.4248148221974911
-0.5448236301512221 -0.6357947162679725 -0.5467470080344035
0 0 0
0 0 0
0 0 0
0 0 0
0 0 0
0 0 0
0 0 0
0 0 0
0 0 0
-0.5496077143258123 0.6135467576165589 -0.5670024131974774
-0.6147799374711438 0.6571996286854467 -0.4360438929037844
-0.6675675939524244 0.6752589936932865 -0.3136539477527753
-0.7109930013488772 0.672669088385595 -0.2049518225422928
-0.7481003486920722 0.6542702383398746 -0.1107985717844896
-0.7813961886584706 0.6232931609746135 -0.0304241981371691
-0.8115316983200501 0.5831454053728822 0.03684750757203475
-0.8389688107082942 0.5362410255292036 0.09261153922755938
-0.8640638424518808 0.4838838594172758 0.138744681925949
-0.8869145491472418 0.4267422893048854 0.1768434364905
-0.9073748111017483 0.3651875642677526 0.2081081331477746
-0.9251080459327383 0.2995544582964746 0.233328587758156
-0.9396521537114787 0.2303437340661108 0.2529735049404574
-0.9505090274619971 0.1582820890874733 0.2673562585528024
-0.9572428864998801 0.08422909780241113 0.2767517214558367
-0.9595504436908279 0.009076963180987009 0.2813903956288234
-0.9572970748077136 -0.0662896624765784 0.2814036090979208
-0.9505314314845476 -0.1409927949085001 0.2767869750256065
-0.9394862984665713 -0.2141519610182692 0.2674031274791105
-0.9245630038320525 -0.2848912115047258 0.2530222313402929
-0.9062873742558764 -0.352389274501387 0.2333773649709296
-0.8852247428350312 -0.4159842888721644 0.2081687442537229
-0.8618661967627573 -0.4752654119087535 0.1769447572574621
-0.8365307286427967 -0.5300135439449013 0.1389315776607939
-0.8092947802318352 -0.580003852633283 0.09293809563388668
-0.7799292869461959 -0.6247510826037678 0.0373683308299716
-0.7478737897848327 -0.663177827267507 -0.02966418671765723
-0.7123978335707689 -0.6931343379614874 -0.1097912394609189
-0.6725445787833161 -0.7114576703812897 -0.2037443810385935
-0.6254740367734503 -0.7150359465972752 -0.3122592262785245
-0.5681186446499036 -0.6988672139907677 -0.4345409334112709
-0.4983948252693986 -0.6570542824737036 -0.5655813540310991
0 0 0
0 0 0
0 0 0
0 0 0
0 0 0
0 0 0
0 0 0
0 0 0
-0.5829486693392354 0.6689107361537628 -0.4612258405313446
-0.6182962916608491 0.712765368835177 -0.3311724999266928
-0.6572309348065789 0.7229037422286416 -0.2132080622422506
-0.69275819275996 0.7125732897039501 -0.1110197872653508
-0.7249288250427464 0.688400282792938 -0.02415055429478525
-0.7548638213358309 0.6540403475630431 0.04911043675106016
-0.7831949185809092 0.6118795420140527 0.1104950024829876
-0.8101649260566028 0.5634314685525678 0.161795466044001
-0.8357561017608621 0.5095220317835145 0.2046925438228904
-0.8597306419057822 0.450552848587251 0.2405521856025933
-0.8816647955821835 0.3867467497986403 0.27035927901815
-0.9009903150498576 0.3183533881554368 0.2947330528398732
-0.9170493139048441 0.2458047189872852 0.3140073183705049
-0.9291715079303139 0.1697838349443649 0.3283500544268118
-0.9367667335475219 0.09119890799502643 0.337862170269505
-0.9394101646469389 0.01111355384904217 0.3426149901549185
-0.936903292262709 -0.0693223425075347 0.3426465143213401
-0.9293050547898688 -0.1489320992584625 0.3379516902642533
-0.9169314290175636 -0.226570222746641 0.3284854466248778
-0.9003213862225597 -0.3011883225614336 0.314176695289319
-0.8801682323209614 -0.3719122479978423 0.294932471257718
-0.8572231333587116 -0.4381157131953748 0.2705977115313055
-0.832191917319724 -0.4994461163433099 0.2408530456882489
-0.8056503318298439 -0.5557561265168334 0.2050918590814056
-0.7779818303100217 -0.6069521926696758 0.1623370183320525
-0.749324707994969 -0.652795440264649 0.1112231772515822
-0.7195224817823501 -0.6926624984274248 0.05006057812335553
-0.6880702438551 -0.7252805673476729 -0.02296602161935272
-0.6539832551206255 -0.7485238184058495 -0.1096266176663179
-0.615731083452104 -0.7589817619329363 -0.2117118747828591
-0.5730302945224038 -0.7501557284768214 -0.330004037237389
-0.5335659676434729 -0.7083875171103886 -0.4620546328897295
0 0 0
0 0 0
0 0 0
0 0 0
0 0 0
0 0 0
0 0 0
-0.4624165990904516 0.7266052486196042 -0.5081492906263505
-0.5474231463064654 0.7539293551539425 -0.3632057630670114
-0.5945614996154039 0.7685920205544423 -0.2361417563988232
-0.6310302668594441 0.7655550230431265 -0.1254045812589636
-0.6628728613744275 0.7480940542597422 -0.03090073841351362
-0.6923671065559859 0.7198884540503488 0.04887129509528024
-0.7207178996267181 0.6834412767008532 0.1160763992341221
-0.7484801164128488 0.6402485430854035 0.1727984907677896
-0.7757616492059988 0.5911138823967175 0.2208579671623092
-0.8023603958935338 0.5363827116659172 0.2617467893355876
-0.8278417213600866 0.4761479543054783 0.2965825517225788
-0.8515847567264001 0.4104374106479455 0.3261050966358042
-0.8728232456335613 0.3393811510414481 0.3507135814300283
-0.8907001303387274 0.2633476563952693 0.3705418865468419
-0.9043482122607105 0.1830239425566927 0.3855600438736626
-0.9129944304196577 0.09942383313149739 0.3956716712479226
-0.9160691959347991 0.01383487497340439 0.4007815171559689
-0.913296510868561 -0.07227543774570287 0.4008313165584479
-0.9047444882452893 -0.1573775062397544 0.395815274489913
-0.8908240801891028 -0.2400079211276861 0.3857831721980688
-0.8722344235052145 -0.3188929496409258 0.3708293369217644
-0.8498653076424135 -0.3930493538777654 0.3510572094148419
-0.8246783675734587 -0.4618413982433689 0.326508978322166
-0.7975940814057472 -0.5249728008368464 0.2970643696036913
-0.7694041495069479 -0.5824062489371808 0.2623360743786715
-0.7407095800215766 -0.634228947182343 0.2215918785069428
-0.7118689840915168 -0.6804890934891934 0.1737156962705647
-0.6829365489408478 -0.7210129135351356 0.1172094221312418
-0.6535656729426388 -0.7552006700644778 0.05023802429633361
-0.6228556578980667 -0.7817876970614269 -0.02930573574841851
-0.589153997490743 -0.7985078829601608 -0.1236233314999994
-0.5497182661820995 -0.8018310070454234 -0.23425811398171
-0.4982694826950096 -0.7882399222947131 -0.3611168059169654
-0.4081095242277935 -0.7614638383859229 -0.5036064327082614
0 0 0
0 0 0
0 0 0
0 0 0
0 0 0
-0.3869165186999476 0.7245489044347587 -0.5703722404180477
-0.4614872766127842 0.7810018190407509 -0.4207916968994909
-0.5198426218370003 0.8073610794626068 -0.2791625617639424
-0.5616036959292113 0.8125359275154131 -0.156162272061201
-0.5949584114442686 0.8020898965504126 -0.05173283776732279
-0.6245035013039998 0.7801858454378378 0.03613064402263864
-0.6525447895061579 0.7497187311111153 0.1100323675538372
-0.6802265829580134 0.7123964517614796 0.1725777834917291
-0.7080230014975177 0.6690457932710928 0.2260114064747596
-0.73596664814986 0.6199241442064256 0.272116056565926
-0.76377064495768 0.5649558160322793 0.3122167962045452
-0.7908948424479246 0.5039175897893861 0.347206582440667
-0.8165841682282418 0.4366029878669769 0.3775819476413275
-0.8399042241276315 0.362978093815443 0.4034944828652157
-0.8597967327806038 0.2833229303004211 0.4248266652009746
-0.8751709102762623 0.1983354490260523 0.4412923378734914
-0.8850320424507169 0.1091709998762515 0.4525483141295869
-0.8886287387136524 0.01740055313168924 0.4582970493936152
-0.8855845455755565 -0.07511267264816889 0.4583645918320733
-0.8759759406996348 -0.1664000540485822 0.4527440483628888
-0.8603306307371067 -0.2546008931469405 0.4415989028793795
-0.8395447840516026 -0.3381550819974693 0.4252242891593001
-0.8147438140553619 -0.4159339059414288 0.4039696812222764
-0.7871259555067651 -0.4872862907390349 0.3781333111818553
-0.7578253187863958 -0.5519996324138003 0.3478465064095461
-0.727813962220247 -0.610194061832375 0.312969716269437
-0.697840214359873 -0.6621799007574281 0.273014311447309
-0.6683845094875928 -0.7083024955068076 0.2270896790606265
-0.6396077410510557 -0.7487804292651693 0.1738672089182823
-0.6112660644818387 -0.7835235454586872 0.1115556010459914
-0.5825659723860972 -0.8118993325867668 0.03789936098410093
-0.5519188658941735 -0.8324145289438596 -0.04971536455926636
-0.5164689954286212 -0.8423670413070488 -0.1538750937629585
-0.4710813922734201 -0.8376519371986625 -0.2764444862193192
-0.4074013401061087 -0.8124735582800102 -0.4170262164127873
-0.3271852167385486 -0.7574410395508827 -0.5650069960202495
0 0 0
0 0 0
0 0 0
0 0 0
-0.4136093260348166 0.7650652426829485 -0.4935610396450523
-0.4501093345346485 0.8241101026563021 -0.3438664357924374
-0.4891997790028342 0.8472620635874846 -0.2069554827228663
-0.5228665335654958 0.8477156600430401 -0.08937979522797181
-0.5523487891348885 0.833561755906846 0.009252795832471239
-0.5798039879911865 0.8095788844617273 0.09170259180208869
-0.6067384525614631 0.778396161204833 0.1611454821113521
-0.6339929643230353 0.7412526876154792 0.2204481215427315
-0.6619167294162398 0.6985152035206696 0.2719241691526984
-0.6904919073413405 0.6500299658778828 0.3173042220912221
-0.719401587093232 0.5953611985222557 0.3577798202552538
-0.748060803901339 0.5339701154196447 0.3940570383906533
-0.775630588058291 0.4653766261961246 0.4264056597404183
-0.8010374991286804 0.3893259167403008 0.4547133773532435
-0.8230235793070089 0.3059587804925175 0.478561816847323
-0.8402484220361756 0.2159606198178637 0.4973365057519912
-0.8514505701805961 0.1206462316699219 0.5103688992513012
-0.8556488910853369 0.02193498636280138 0.5170917051720093
-0.8523350226540621 -0.07780953256192144 0.5171756817560104
-0.8415927486855268 -0.1760584116732891 0.5106124567996922
-0.824096471160129 -0.2704469298492962 0.4977182580100031
-0.8009870622300768 -0.3590607303188989 0.4790564873612397
-0.7736711978576973 -0.4406056069911158 0.4553016326496377
-0.7436097350215496 -0.5144381605021218 0.427080719537154
-0.7121471262351983 -0.5804812031952944 0.3948265990683651
-0.6804029125687976 -0.6390711744465669 0.3586640636575987
-0.6492172516161947 -0.6907836570042321 0.3183314301475331
-0.6191259679700005 -0.7362645378369186 0.2731255500845682
-0.590336881838703 -0.7760692717983529 0.2218532201959908
-0.5626820640343529 -0.8104885904353258 0.1627794200388929
-0.5355253078301273 -0.8393177916682131 0.09358573215314701
-0.5076107295222612 -0.86151107034662 0.01140276037187581
-0.4768812390995303 -0.8746570568487759 -0.08694433103735343
-0.4405630431698586 -0.8741837962871063 -0.2042226610882729
-0.3970425112971602 -0.8521125768561786 -0.340971260645772
-0.3552330811355128 -0.7950122412149891 -0.4916960386105315
0 0 0
0 0 0
0 0 0
-0.2969611740210981 0.7568451111513407 -0.5822366691048625
-0.3758311855420509 0.8240705698254112 -0.4238615527759954
-0.4178753359681842 0.8655182423188691 -0.2761491912041962
-0.4503330331697306 0.8809897041534642 -0.1451113379848084
-0.4784599759556663 0.8774666905316547 -0.03358955813832177
-0.5044742163226983 0.8613635766497083 0.05965361587381726
-0.5298550484218798 0.8368347132585394 0.1377000012612382
-0.5555746264969315 0.8060780345223205 0.2038995749221352
-0.5821936998639321 0.7699563475826182 0.2611852190610706
-0.6099453536436762 0.7284961398188263 0.3118654194320992
-0.638784448020008 0.6812234356509413 0.3576157989906217
-0.6684022598173132 0.627387234148328 0.399529319948886
-0.6982166693346369 0.5661302156679047 0.4381667052287948
-0.7273525208544137 0.4966548952589505 0.4735950014749415
-0.7546335526774476 0.418414815334092 0.5054277826577709
-0.7786152106124279 0.3313353409445871 0.5328932779122834
-0.7976902670119023 0.236035617074928 0.5549571383328061
-0.8102861682139745 0.1339877799902746 0.5705117005061261
-0.8151374323190235 0.02752815867811506 0.5786131409777534
-0.8115650083555702 -0.08034579425912393 0.5787113188435951
-0.7996580917417644 -0.1863834903348579 0.5707960501286908
-0.7802736988864595 -0.2875796274591242 0.5554015778664239
-0.7548512923157419 -0.3815926651906859 0.5334665541174278
-0.7251241208470964 -0.4669613660878066 0.5061048230822686
-0.6928340269473111 -0.5431018264515302 0.4743642242085549
-0.6595226605265624 -0.6101482522324547 0.4390318559622357
-0.6264190519016319 -0.6687251747076122 0.4005069439184963
-0.5944041090725241 -0.7197194992635043 0.3587305360539978
-0.5640168290275411 -0.7640845315150816 0.3131450866181607
-0.5354683462558273 -0.8026735686133715 0.2626571765772331
-0.5086382320955956 -0.8360743264931381 0.2055890790623666
-0.4830359157894643 -0.86439555306153 0.1396303402018496
-0.4577195018983637 -0.8869429900183721 0.06184650385577995
-0.4311872038340493 -0.9017257854173165 -0.03111596315875263
-0.4013054693206505 -0.9048151133402672 -0.1423500297308406
-0.3652450984852277 -0.8899493261040441 -0.2731047692726608
-0.3176593313593204 -0.8499430888514632 -0.4203442576198496
-0.2325915209656862 -0.7838154972385003 -0.5757902835786919
0 0 0
0 0 0
-0.3252995268675465 0.7870559691164645 -0.5241403622102508
-0.3535002913813833 0.8612006375687159 -0.365199953237283
-0.3810841769893399 0.89808098485426 -0.2196028112105106
-0.4059427193970553 0.9090984951313819 -0.09354375830796878
-0.4291936868452493 0.9031250691961953 0.01256537152450562
-0.4519737344555595 0.886276351222352 0.1011630991334737
-0.4751442337456888 0.8621838628009416 0.1757183651866485
-0.4992945059310592 0.8326271874668671 0.2396600989695055
-0.524782830540787 0.7981496262062462 0.295905652119773
-0.5517657290566224 0.7585086367076127 0.3467264458886459
-0.5802006039397029 0.712968822737618 0.3937546405975915
-0.6098216495741248 0.6604945829483978 0.4380233573755111
-0.6400946367056783 0.5999036920820349 0.4799941835970183
-0.6701614248895427 0.5300347042151853 0.5195641220461036
-0.6987950517775203 0.4499673256884865 0.5560709320077821
-0.7244009228309995 0.359310481707976 0.5883360270596878
-0.7451112957142685 0.2585298860222506 0.614793831322603
-0.7590132930675929 0.1492259467409736 0.6337431954395625
-0.7645058628591129 0.03421848031091834 0.6437079161073396
-0.7606973872657609 -0.0826984017368572 0.6438171008580105
-0.7476790862814875 -0.1973466268167275 0.6340585878460591
-0.7265273350422496 -0.3059135681761175 0.6152844222326467
-0.6990299376900626 -0.4055583696418906 0.5889648164588767
-0.6672776947745884 -0.4946771234036769 0.556807885753582
-0.6332898884676843 -0.5728298973855293 0.5203939140938059
-0.5987706350782367 -0.6404623906379867 0.4809175113741225
-0.565006263858553 -0.6985697877321106 0.4390537250365976
-0.5328632573535781 -0.7483984428949386 0.3949133064799983
-0.5028349862018436 -0.7912184784034482 0.348037779679625
-0.4750958603292132 -0.8281549896320503 0.2973940763458192
-0.4495365858179171 -0.8600393027531941 0.2413488258330039
-0.4257662026399045 -0.8872266314979363 0.1776289532999052
-0.4030758350686491 -0.9093163029638194 0.1033137568183543
-0.3803744937528579 -0.9247114702918399 0.01496466548105833
-0.3561439043916583 -0.9299980742817351 -0.09091260196985268
-0.3285411363276842 -0.9192668193258252 -0.2168161355321457
-0.2960831672461921 -0.8837081031823392 -0.362484132678018
-0.2619420056556018 -0.8115156805158478 -0.5223300546110866
0 0 0
0 0 0
-0.3065681902533544 0.8275035014403997 -0.4703763385084977
-0.3193128223806148 0.8945413653382325 -0.312785976607226
-0.3373001902258667 0.9256457630980829 -0.1714890752560089
-0.3562119744831976 0.9330275667553548 -0.05072069507965319
-0.3753937812823422 0.9254919574317658 0.0504395252125046
-0.3951475183022196 0.9086282347891895 0.1351042920246352
-0.4158978107028385 0.8855513602709164 0.2069487844248307
-0.4379931528768 0.8576613986623209 0.2694047573403832
-0.4616747356748616 0.8252324861678104 0.3253425613301162
-0.4870692399593889 0.787805052669214 0.3769970218373608
-0.514166728341741 0.7444263109649469 0.425983618240737
-0.5427750802277893 0.6938022402732873 0.4733219450601079
-0.5724509008145021 0.6344234240331308 0.5194293842234405
-0.6024129132235118 0.5647236600522791 0.5640796661454115
-0.6314564610672747 0.4833244450925391 0.6063499142841382
-0.6579093272777612 0.3893990413906643 0.6446112810407174
-0.679694021683396 0.2831383262864277 0.6766451988121772
-0.6945685431631755 0.1662058033988644 0.6999644060698523
-0.7005701083584319 0.04195739668856303 0.712349001640188
-0.6965608931488829 -0.08483054687981821 0.7124652275386503
-0.6826287624235937 -0.2088044478296949 0.7002989899168558
-0.6600948951516261 -0.3251545355844301 0.6771626520885781
-0.6311193993294097 -0.430482301282467 0.6452699373693429
-0.5981423309468105 -0.523101861854337 0.6071162936818955
-0.5634143437226339 -0.6028362035407764 0.5649360928354084
-0.5287331570959353 -0.670560723265843 0.5203744469135219
-0.4953706739120072 -0.7277254328178432 0.4743665142672342
-0.4641180393733574 -0.7759774828480033 0.4271456328245751
-0.4353770335673377 -0.8169076543475611 0.378297135741827
-0.409249807047842 -0.8518892994073098 0.3268014947741615
-0.3856019859988188 -0.8819565558281147 0.2710419562089519
-0.3640889061316036 -0.9076616904679525 0.2087810434133108
-0.3441446022492203 -0.9288469205766988 0.1371418640602096
-0.3249492984315424 -0.9442633135974906 0.05267587723744969
-0.3054400931098106 -0.9509838514461627 -0.04833284400583614
-0.2845781946548624 -0.9436217356466243 -0.169095449797535
-0.2625177569854428 -0.9135051760252443 -0.3107936946632258
-0.2444140070438667 -0.848170158772632 -0.4699672062265283
0 0 0
0 0 0
-0.2573558308841482 0.8681971988303531 -0.4242659546240514
-0.2698600101373942 0.9247444464066878 -0.2683715405340764
-0.2852728701003572 0.9493376627457276 -0.1318233351011235
-0.3010925079142652 0.9534596578488972 -0.01606183465738819
-0.3172917650279879 0.9448765442309937 0.08083472030951973
-0.3342528771732149 0.9283987395834109 0.1623292778316989
-0.3523357221225701 0.9066194515252155 0.2321652623294102
-0.3718187670647303 0.8806060911517762 0.2937409005992403
-0.392907685136596 0.850414281402898 0.3498844108367695
-0.4157369375410163 0.8154142157253679 0.4028181420405486
-0.4403479234694367 0.7744769970036711 0.4541795761682046
-0.466640086799912 0.7260814342116959 0.5050275044831287
-0.4942929574616216 0.6684027940768837 0.5557986839441577
-0.5226602854719106 0.5994488632498898 0.6062072965074201
-0.5506493510970232 0.517314598986337 0.6551113629086521
-0.5766250808945629 0.4206186810081999 0.7004166197844395
-0.5984180094851216 0.3091319723384638 0.7391436325924721
-0.6135455112753329 0.1844746251197637 0.7678092330004977
-0.6197206438822367 0.05055859868024127 0.7831922826775528
-0.6155579967673263 -0.08667068079447886 0.7833112699983431
-0.6011346607516366 -0.2204129874166749 0.7681505286212273
-0.5780068271201242 -0.3446717327091074 0.739668509856833
-0.5486666714940394 -0.4554675595097395 0.7010807270392569
-0.5158193674583622 -0.551137110438517 0.6558797646309396
-0.4818355357563426 -0.6319106155324078 0.6070613564211211
-0.4484964837439331 -0.6992113725055932 0.5567354494085787
-0.4169719911034255 -0.7550115822525415 0.5060552038066181
-0.3879192280990989 -0.8013795567028704 0.4553125064938467
-0.3616139460261263 -0.8402145724758405 0.4040727981919273
-0.3380644040591674 -0.8731075494240955 0.3512771923236261
-0.3170874878329945 -0.9012553715019941 0.2952867765386091
-0.2983414913709922 -0.9253617629164793 0.2338759548535014
-0.2813164007305378 -0.945460998174397 0.1642089632483195
-0.2652906196640307 -0.9606005333121777 0.08287039591213455
-0.2492911699569285 -0.9683285342616401 -0.01391985331132096
-0.2321919426950002 -0.9639835763381749 -0.1297018361388272
-0.2134185535579926 -0.9398885010895565 -0.266574804730005
-0.196016376382131 -0.8843857278217524 -0.4236029563343572
0 0 0
-0.08931441531078292 0.8270288136871021 -0.5550191677311666
-0.1759479457116411 0.9046767601639717 -0.3880750958501103
-0.2086055546969484 0.9494134217820676 -0.2347293698914636
-0.2271638784069858 0.9685229557389248 -0.1017833805384367
-0.241801357831278 0.9702710673141421 0.01030336275324693
-0.2556278854289607 0.9611554336453585 0.1040894642368775
-0.26980546033185 0.9453035025650806 0.1833202160518814
-0.2848693172064643 0.924898000324472 0.2518196996069108
-0.3011243073244337 0.9007564743189782 0.312988698695054