# OOMMF: rectangular mesh v1.0
# Segment count: 1
# Begin: Segment
# Begin: Header
# Title: 
# Desc: time = 2.4e-10
# Desc: stepsize = 7.053797219909926e-14
# Desc: step = 1534
# meshunit: m
# valueunit: (none)
# valuemultiplier: 384000.0000000001
# xmin: 0
# ymin: 0
# zmin: 0
# xmax: 9.357999999999999e-08
# ymax: 9.357999999999999e-08
# zmax: 2.3395e-08
# ValueRangeMaxMag: 1
# ValueRangeMinMag: 0
# meshtype: rectangular
# xbase: 1.16975e-09
# ybase: 1.16975e-09
# zbase: 1.16975e-09
# xstepsize: 2.3395e-09
# ystepsize: 2.3395e-09
# zstepsize: 2.3395e-09
# xnodes: 40
# ynodes: 40
# znodes: 10
# End: Header
# Begin: Data Text
0 0 0
0 0 0
0 0 0
0 0 0
0 0 0
0 0 0
0 0 0
0 0 0
0 0 0
0 0 0
0 0 0
0 0 0
0 0 0
0 0 0
0 0 0
0 0 0
-0.8320707708383761 -0.001744745386929551 -0.5546667361397878
-0.8405390688098584 0.01817220932657262 -0.5414460680552097
-0.8492681486559783 0.0005556257360952011 -0.5279614597283482
-0.8528816014336322 -0.03254650332348026 -0.5210889550330322
-0.8497366196559579 -0.06993219569231569 -0.5225487204283609
-0.8400108735511513 -0.1029327240745527 -0.5327162346225457
-0.8258255906055377 -0.1201953995545665 -0.5509674761970372
-0.8135742571142782 -0.09882505593101847 -0.5730013407324465
0 0 0
0 0 0
0 0 0
0 0 0
0 0 0
0 0 0
0 0 0
0 0 0
0 0 0
0 0 0
0 0 0
0 0 0
0 0 0
0 0 0
0 0 0
0 0 0
0 0 0
0 0 0
0 0 0
0 0 0
0 0 0
0 0 0
0 0 0
0 0 0
0 0 0
0 0 0
0 0 0
0 0 0
-0.7877820135243294 0.2073208029109541 -0.5800151582914967
-0.8144430133483795 0.237277682258451 -0.5295109814820352
-0.8496310203960629 0.2204936606854979 -0.479071680208978
-0.88414925725938 0.1729056866474352 -0.4340319278724381
-0.9136920278152104 0.09176075735540222 -0.3959126693053548
-0.9251263394832914 0.05215642338395513 -0.376059787127046
-0.9316950036897921 0.01457578469797788 -0.3629489862224665
-0.9338049308215647 -0.02664954243956059 -0.3567886672262652
-0.9309691735825621 -0.06944706013570107 -0.3584320070494668
-0.9232579419582599 -0.1104396927129988 -0.3679644641598643
-0.9112221334265203 -0.1474996620011768 -0.3846011872877655
-0.8940424319824575 -0.1861028968995608 -0.4074970448733145
-0.855905656448458 -0.2653186996521232 -0.4438822984468296
-0.8138753633161756 -0.3120310633062505 -0.4901464153892523
-0.7723924488136252 -0.3279430497375793 -0.5439331403256347
-0.7415522713498234 -0.2963833775448604 -0.6018779962509169
0 0 0
0 0 0
0 0 0
0 0 0
0 0 0
0 0 0
0 0 0
0 0 0
0 0 0
0 0 0
0 0 0
0 0 0
0 0 0
0 0 0
0 0 0
0 0 0
0 0 0
0 0 0
0 0 0
0 0 0
0 0 0
0 0 0
-0.7664182084016822 0.3025072582413099 -0.5666502347495151
-0.8029281816806603 0.330612243654912 -0.4959857653284549
-0.8560628219349115 0.2929876081826484 -0.4258106461236579
-0.8885004957467981 0.2716995282865876 -0.3697921516021394
-0.9169164892779839 0.2386704135875071 -0.3198446269176722
-0.9417957792545635 0.1902729059195575 -0.2771586755835301
-0.9609421003875817 0.1298060111568189 -0.2444190646620231
-0.9714509396291006 0.07732275932155193 -0.2242861181273563
-0.9768197023612536 0.02800640895345399 -0.2122237266103947
-0.9781044228937756 -0.02120022014585894 -0.207032095534487
-0.9754342650154353 -0.07054242054081356 -0.2086905880437352
-0.9688101122717633 -0.1193443278728474 -0.2171725069260641
-0.9580325139598284 -0.1678507191765918 -0.2323786527797077
-0.9417418349252619 -0.2191126091195159 -0.2551704937418094
-0.9159034958227417 -0.2780118351312106 -0.2895344640395288
-0.8846028973722657 -0.324967060437137 -0.3344758938868964
-0.8502855491874018 -0.3564744501172047 -0.3872214498923252
-0.8122651241711527 -0.3759646113911387 -0.4459551311922889
-0.7521314900019865 -0.4109700990863045 -0.5151716213111746
-0.7109724621993506 -0.380952851164316 -0.5910948174226967
0 0 0
0 0 0
0 0 0
0 0 0
0 0 0
0 0 0
0 0 0
0 0 0
0 0 0
0 0 0
0 0 0
0 0 0
0 0 0
0 0 0
0 0 0
0 0 0
0 0 0
0 0 0
0 0 0
-0.7733679616708343 0.384455315236808 -0.5040794644173331
-0.8230334775901577 0.3832819166232568 -0.419178800937564
-0.8614924977457705 0.3726343117537451 -0.344926580639367
-0.8979453344598408 0.3406663580062382 -0.2786406446385195
-0.9259398842719747 0.3040381296395919 -0.2240449652182803
-0.94894176494821 0.2604154900614959 -0.1780261196369974
-0.9678843271255165 0.208614549858267 -0.1402850629690071
-0.9821977040079295 0.1508650166280669 -0.111925944263894
-0.9912169755144662 0.09364364016955258 -0.09337974142044383
-0.9958747890456675 0.03767892242566604 -0.08254515944673868
-0.9967833442043907 -0.0176856555957983 -0.07816765509376246
-0.9941505629651635 -0.07274658880838686 -0.07982851603776488
-0.9879679897389908 -0.127535055738658 -0.08748748944183006
-0.9779814236429676 -0.182364115940396 -0.1014675525798851
-0.9634742136182122 -0.2379322462174197 -0.1229051907069052
-0.9434581682500587 -0.2936215982099162 -0.1538604621951264
-0.9189696680167904 -0.3431593245301145 -0.1942586606901867
-0.8906476620132218 -0.3843677509429481 -0.2429159817415089
-0.8573213501761399 -0.4184948666207863 -0.2997701605300471
-0.8150430228625445 -0.4479816877488633 -0.3674469734870126
-0.7711186994165244 -0.4563919115051299 -0.4439396068418104
-0.7158769669673845 -0.4542269555520719 -0.5302810962267789
0 0 0
0 0 0
0 0 0
0 0 0
0 0 0
0 0 0
0 0 0
0 0 0
0 0 0
0 0 0
0 0 0
0 0 0
0 0 0
0 0 0
0 0 0
0 0 0
-0.6736671488465051 0.4767510985640636 -0.5646954600339718
-0.7239408818586479 0.5113843066529431 -0.4630288225184384
-0.8018811866843689 0.4751674279585655 -0.3622188259173032
-0.8499238501379032 0.4471795544068908 -0.278675250223656
-0.8852437142043293 0.4160557673785852 -0.2079451006702004
-0.9146121304131094 0.3763981474543635 -0.147678994762682
-0.9384977254891567 0.3311017857830337 -0.09794706071631173
-0.9581338630993309 0.2805638942128399 -0.05712619054758156
-0.9740747196863515 0.2248973090944588 -0.02448756480393741
-0.9862178763197755 0.1654517839342937 -8.729416582780438e-05
-0.9943537172244457 0.1048542514939537 0.01631781191120342
-0.9986816568036698 0.04432474012894198 0.02588949162070319
-0.9994358225539529 -0.01587298254476875 0.02959873343635823
-0.9967389013503321 -0.07571230918922178 0.02791431124295058
-0.9906015336714464 -0.1351780347410741 0.02086864660966085
-0.9809161752267176 -0.1942640833209698 0.008057487825015515
-0.9674618132454382 -0.252758540896991 -0.01143503019115645
-0.9500938513698018 -0.309547278100714 -0.03875766001367456
-0.9291578919651935 -0.3621593035527854 -0.07420411477107496
-0.9047467273901937 -0.4093807316999394 -0.1176468265171501
-0.8761230664428286 -0.4512511245620612 -0.1696490348581145
-0.8417806433123598 -0.4875651386489563 -0.2317014978778801
-0.8011564995261695 -0.5155819854330617 -0.3038477901250507
-0.7468028842607827 -0.5405017059955025 -0.3874833646438605
-0.6604814101196976 -0.573475241483747 -0.4846549847999643
-0.6044023800196801 -0.5367365100741787 -0.5887373623101704
0 0 0
0 0 0
0 0 0
0 0 0
0 0 0
0 0 0
0 0 0
0 0 0
0 0 0
0 0 0
0 0 0
0 0 0
0 0 0
-0.6545949077289213 0.5249253060234382 -0.5440210748413749
-0.7164316840697182 0.5471022750422105 -0.4329026942681976
-0.7666441118273009 0.5510023074126013 -0.3296259441040981
-0.8170114868389688 0.5266149958047073 -0.2348805580859888
-0.8563523145780615 0.4923409460868657 -0.1557597705541665
-0.8874900832417508 0.4518867130693487 -0.09033133840993395
-0.9133548623549057 0.405554411431876 -0.0361733988007144
-0.9350590233576284 0.3543992860994744 0.008109799606680079
-0.9532470238421611 0.2989810420320024 0.04393686426589984
-0.9681543854682034 0.239717212780009 0.07219933376194609
-0.979688545474919 0.1774933770971785 0.09330838628910046
-0.9876627420341135 0.1136733434736542 0.1077064481875455
-0.9920092282413767 0.04928444603983412 0.1161410111136216
-0.9927433766097439 -0.01510785748676383 0.1192993748501781
-0.9899026587150913 -0.07918730524670817 0.1175674145184684
-0.9835238259235252 -0.1427090104093327 0.1109730696553889
-0.9736432746613377 -0.2053802589835629 0.09918529591926029
-0.9603239492103887 -0.2666927373791332 0.08156528919943473
-0.9437209478501507 -0.3257238428067528 0.05739992000007044
-0.9240954190739632 -0.3812578078029778 0.02627052408657984
-0.9015174577777149 -0.4325713095414013 -0.01217930554846555
-0.8756132698528128 -0.4794251437914287 -0.05876166401857966
-0.8455131387074009 -0.5214616045652462 -0.1148273801730147
-0.8098268711565244 -0.5578183589936955 -0.1817116317752241
-0.7651549336905947 -0.588323728897607 -0.2615590133506321
-0.7083633905269744 -0.6094378585319324 -0.356099429301903
-0.6518914024996606 -0.6029200131101858 -0.4599185331536864
-0.583968356963402 -0.5775270690025899 -0.5704765048928326
0 0 0
0 0 0
0 0 0
0 0 0
0 0 0
0 0 0
0 0 0
0 0 0
0 0 0
0 0 0
0 0 0
-0.6141912691694446 0.5725267669190441 -0.5431226252304843
-0.681424513542507 0.5984364989885024 -0.4213482989425038
-0.7336776739963178 0.6047690331733898 -0.3097926519365424
-0.776713297417955 0.5936636974316196 -0.2104278212735793
-0.8152693279510358 0.5657392387616934 -0.1235922191224254
-0.8481884794861927 0.5272231462614068 -0.05110829006260476
-0.8762469645497364 0.4817892337174979 0.008389957763824667
-0.9005398285845176 0.4310165191033055 0.05703312540127182
-0.9216491481610627 0.3758211469165827 0.09654694829093111
-0.939793455727593 0.3167425416233 0.1283059737408994
-0.954927463731762 0.2542304406832556 0.153233227600354
-0.9668269211248793 0.1889459260345605 0.1718870024845634
-0.9752133792760975 0.1217954331198268 0.1847288211190876
-0.9798723194533592 0.05365251966490146 0.1922801204043232
-0.9806893090948617 -0.01478659505006734 0.1950123986670275
-0.97764297369233 -0.082972785664108 0.193209039201471
-0.9707951648423395 -0.1504159475927652 0.1869004832216998
-0.9602906154821066 -0.2165962459820986 0.1758635836194029
-0.9463641758502098 -0.280883755041987 0.1596845728956484
-0.9293376201207049 -0.3425161291111719 0.1378923098910271
-0.9095572500122701 -0.4007379122754611 0.1100669551464983
-0.8872380252023377 -0.4550601913755645 0.07568955582040365
-0.8623263165022891 -0.5052186575725082 0.03387376430552799
-0.8344211208169372 -0.5508734635963656 -0.01672782830942582
-0.8026778255115494 -0.5913149868052869 -0.07781320460894657
-0.7656518587268567 -0.6251715593680157 -0.1514521461897205
-0.7222831722938335 -0.6489878035550435 -0.2390017779389018
-0.6737905627010405 -0.6566613775456797 -0.3388246048545259
-0.6152288447306249 -0.6473110062817384 -0.4499799215053304
-0.5414093489507283 -0.6180903566124294 -0.5699475659492442
0 0 0
0 0 0
0 0 0
0 0 0
0 0 0
0 0 0
0 0 0
0 0 0
0 0 0
-0.5729315168580928 0.5983513788178764 -0.5601116892704799
-0.6368500804521793 0.6401732257919633 -0.4296512725538752
-0.6886693888854308 0.6563701545602074 -0.3080790369609337
-0.7313137617597562 0.651922059557545 -0.200444032395687
-0.7677211313921777 0.6316927393809711 -0.1075571821278277
-0.8002951679184926 0.5989227614517618 -0.02862114640099562
-0.8296421327522263 0.5570671682348769 0.03701488399430762
-0.8561750582549436 0.5086221554047943 0.09092729322664656
-0.8802047916145773 0.4549905092728115 0.134993189792692
-0.9018052461125086 0.3969448712056148 0.1708275952752218
-0.9208353633429266 0.3349557112206458 0.199666985597949
-0.9369949364173766 0.2694422412339713 0.2223541494261128
-0.9498884640023499 0.2009643610197878 0.2394268814380799
-0.9591078943244055 0.130269799140687 0.2512803742365284
-0.9643169919871872 0.05819034787008062 0.2582762520626739
-0.9653045883483968 -0.01446044779254113 0.2607258083948936
-0.962005412525121 -0.08691912266601411 0.2588255249919179
-0.9545042220328046 -0.1584556659198603 0.2526133251818757
-0.9430324265783908 -0.228344747440159 0.2419680118076801
-0.927955191890412 -0.2958533238814188 0.2266494486910227
-0.9097355667180133 -0.3602745523652046 0.2063575672620372
-0.8888602210318158 -0.421022060502094 0.1807427233330352
-0.8657349224599805 -0.4777174155841534 0.1492953947073004
-0.8405941857677081 -0.5301315754310297 0.1111842056433301
-0.8134371550351579 -0.5779903824589875 0.06516987489033108
-0.7839703947794048 -0.6207235524472099 0.009627644921773596
-0.7515872374184142 -0.6571381803545338 -0.05732396069784656
-0.7155433910294506 -0.684950396559782 -0.1372611008504303
-0.6749146476121699 -0.7008726450279668 -0.2307980803430601
-0.6269113478565476 -0.7017143188499194 -0.3384954603088199
-0.5685775451059407 -0.6824510088214676 -0.4593258056759524
-0.4980497270805974 -0.6372795932770234 -0.5880656335372895
0 0 0
0 0 0
0 0 0
0 0 0
0 0 0
0 0 0
0 0 0
0 0 0
-0.6060648762050516 0.6541752112673419 -0.4524822193124097
-0.640869181352005 0.6960799533466809 -0.3236655541482487
-0.6792773234848576 0.7041628362015755 -0.206729334908718
-0.7143792934240206 0.6917303053749291 -0.1056948899091334
-0.7461734054734811 0.6654461569256124 -0.02016584233402921
-0.7756961852679403 0.6289975589298235 0.0515509361805202
-0.8035053650072537 0.5848263906449483 0.1111630388652735
-0.8297783577505158 0.5345339415798499 0.1604410867202231
-0.8544465182402188 0.4790582643040147 0.2010580186642455
-0.8772458988442688 0.4189267229435482 0.2343929046807728
-0.8977594386498408 0.3544888207511694 0.2614682892389963
-0.9154628184992629 0.2861072404212353 0.2829672682907524
-0.9297790958670048 0.2142962077378756 0.2993124926191689
-0.9401486060582422 0.1397720214527031 0.3107802769574811
-0.9461061503839999 0.06341240884712275 0.3175878124389744
-0.9473452402554051 -0.01381704966796482 0.3199157465707202
-0.9437581198644088 -0.09092258373500213 0.3178894382595107
-0.9354512280886398 -0.1669202497701715 0.3115583895261346
-0.9227386071307567 -0.2408661405058819 0.3008936112119883
-0.9061118174427598 -0.3118945646567868 0.2858026501418975
-0.8861834809456348 -0.3792736411439573 0.2661397062305471
-0.8636063947811076 -0.4424666813988173 0.241675879526888
-0.8389849641197726 -0.5011553962244428 0.2120082517640885
-0.8128013106993078 -0.555175687630909 0.1764482507395135
-0.7853602011327756 -0.6043735455133137 0.1339476463412192
-0.7567399445782774 -0.6484139184568364 0.08309059291590425
-0.726744926610194 -0.6865496320011931 0.02216786966240955
-0.6948549129231434 -0.717366831713323 -0.05061105357685598
-0.6600958902532523 -0.7385948784531495 -0.1369343681971158
-0.620973522915231 -0.7466856058477043 -0.2384376016027964
-0.5773036707776706 -0.7350124339483347 -0.3556363221719223
-0.5370314442958114 -0.6897823106963586 -0.485589941913902
0 0 0
0 0 0
0 0 0
0 0 0
0 0 0
0 0 0
0 0 0
-0.4880354194177838 0.7150589323200479 -0.5005118906709617
-0.5715109489618463 0.7400118348336482 -0.3546233488123236
-0.6180588536559808 0.7523393676065105 -0.2280103711827384
-0.6542794169117673 0.7469641017402334 -0.118165457376526
-0.6860411858937135 0.7271393389559394 -0.02481678867755256
-0.7155105487823629 0.6965450883846122 0.05356859554286051
-0.7437893718560038 0.6577096623146463 0.1191443259748639
-0.7713383540515552 0.6121872079371994 0.1739654161237039
-0.7981830973162134 0.5608760258381804 0.2198222618359315
-0.8240576984011743 0.5042487763667417 0.258190009950817
-0.8484917033103394 0.442548863853803 0.2901936121199549
-0.8708660109359687 0.3759638097798844 0.3166127046286479
-0.8904611303869617 0.3047733681601809 0.337923318713392
-0.9065136811490013 0.2294612962982872 0.3543733333517012
-0.9182901984816391 0.1507687212578377 0.3660763637041154
-0.925173401273824 0.06968046246561829 0.3730935683256962
-0.9267447221743587 -0.01263648965703409 0.3754790793787559
-0.922845119595162 -0.09491553606163368 0.3732933514724357
-0.9136030430499202 -0.1758785907392902 0.3666008743163147
-0.8994241228535714 -0.2543236979534324 0.3554654749597694
-0.880943372856786 -0.3292087520955321 0.3399417175979021
-0.8589460765148031 -0.3997232852295311 0.320051453496366
-0.8342720384556075 -0.4653322198074499 0.2957297601868915
-0.8077228233598662 -0.5257689640549494 0.2667411424211704
-0.7799881911406297 -0.5809654610587648 0.2325888104315112
-0.7515910338607279 -0.6309317229704027 0.1924476000623568
-0.7228372975577861 -0.6756055354839233 0.1451323591858055
-0.693751888789692 -0.7146805213060492 0.0891070663104131
-0.6639792321558787 -0.7474113020755767 0.02253718694470485
-0.6326262771586838 -0.7723835243486965 -0.05663642611456414
-0.5980632224169848 -0.7871894146985817 -0.1505098248577673
-0.5575924024621706 -0.7881953425200371 -0.260458854228813
-0.5049943323767957 -0.7718954783471531 -0.386209910248991
-0.4135051142462868 -0.74231391707315 -0.5272414712555165
0 0 0
0 0 0
0 0 0
0 0 0
0 0 0
-0.413970952848528 0.716097364084639 -0.5619898712154102
-0.4872576278295312 0.7701766537104227 -0.4115919413707626
-0.5447352875846521 0.794025827020705 -0.2697896448793973
-0.5861961689383763 0.7966713572597819 -0.1472711785918316
-0.6196287301478453 0.7836763815044744 -0.04372145751712751
-0.6494615224206909 0.7591788191518616 0.04297966316973
-0.6778647136435753 0.7260634767939022 0.1154610655713193
-0.7058613105534464 0.6860580766516088 0.1763069077627585
-0.7338139133323233 0.6400476177316553 0.2277195372293164
-0.7616551499699676 0.5883904130448685 0.2714372015054583
-0.7890163536568942 0.5311535974404339 0.3087540276467076
-0.8153042663946729 0.4682919678017609 0.3405606936964368
-0.8397522086780056 0.399798126673409 0.3673930945579189
-0.8614675455452998 0.3258349488987156 0.3894935866587896
-0.8794936446262962 0.2468439741651108 0.4068893971097402
-0.8928963219767118 0.1636107902853035 0.4194850027148509
-0.9008721047278498 0.07726996824172529 0.4271519670224362
-0.9028604090533657 -0.01075328097802919 0.4297993121355551
-0.8986343203794358 -0.09885420232842626 0.4274157284403555
-0.8883455333543708 -0.1853929592601065 0.4200853056536476
-0.8725102414262543 -0.2688479192204786 0.4079787677528304
-0.8519376148636411 -0.3479503847284688 0.3913219009303728
-0.8276189591704403 -0.4217768758006325 0.3703392032468268
-0.8006039648304062 -0.4897824485565224 0.3451759617699515
-0.7718907843533992 -0.5517701242126927 0.3158074525032676
-0.7423439660655218 -0.6078055446047007 0.2819536415687767
-0.7126384690683184 -0.658097219650469 0.2430112382016218
-0.683213355611877 -0.7028606314733661 0.1980061702028984
-0.6542143437183064 -0.7421698104241867 0.1455594894472774
-0.6254011822898274 -0.775783460556206 0.08386527003428375
-0.5959964236194181 -0.8029158894309941 0.0106928729581166
-0.5644362643989348 -0.821924268860563 -0.07649967117187002
-0.5279009683348116 -0.8299751339676156 -0.1801717087297748
-0.4813097793614629 -0.8228814124542453 -0.30200509487147
-0.4163983885329355 -0.7948586187863225 -0.4413753030792205
-0.3352354166783261 -0.7366212510027548 -0.5873724099544047
0 0 0
0 0 0
0 0 0
0 0 0
-0.4400461533652007 0.7572563795135597 -0.4826200975866063
-0.4760204382811989 0.8138825644744047 -0.3331661951386145
-0.514824241528111 0.8344569824844555 -0.1965643526124252
-0.5486209473957995 0.8322714998832533 -0.07961913438750204
-0.578584340337145 0.8154218228057918 0.01809452980074753
-0.606745924345551 0.7886603085481806 0.09936951751292207
-0.6344802267057819 0.7546002979795902 0.1673715394220086
-0.6624999089713751 0.7144953213138328 0.2249228899724578
-0.6910306318915808 0.6687678164625176 0.2742740845422306
-0.7199378638262813 0.6173683763414888 0.3170895143689311
-0.7488014767471608 0.5600178049655901 0.3545086833108509
-0.7769588861912097 0.4963837253282433 0.3872183962543227
-0.8035357634959953 0.4262301128135076 0.4155215610698102
-0.8274840083707727 0.3495576954554047 0.4394082764793413
-0.8476454384945242 0.2667318767179474 0.4586407270859699
-0.8628543853593696 0.1785768374232088 0.4728558160814234
-0.8720777026682699 0.0864063801776089 0.4816787497631951
-0.8745716527758099 -0.008032360781159958 0.4848297694462139
-0.8700170455845259 -0.1027073230424069 0.4822048798859622
-0.8585907795248311 -0.1955199249007133 0.4739133172656808
-0.8409466354054452 -0.2845445448040962 0.4602642267464314
-0.8181100078764919 -0.368230309958585 0.4417040342131033
-0.7913193653356979 -0.4455203377581946 0.4187186294978192
-0.7618602837451149 -0.51587332745809 0.3917187997392143
-0.7309281130889624 -0.5792005384566954 0.3609305054268516
-0.6995359714029026 -0.6357481082966053 0.3263031834210098
-0.6684619419660848 -0.6859565093788522 0.2874409493856276
-0.6382175552746298 -0.7303169953064673 0.2435476103471515
-0.6090136786731629 -0.769225872962922 0.1933750127431454
-0.5807029733521791 -0.8028161401389455 0.1351676805761765
-0.5526793320084485 -0.8307268555362106 0.06662167411296692
-0.5237227826103816 -0.8517553221068647 -0.01507707655581952
-0.4918197861966185 -0.863334350820597 -0.1129915775564288
-0.4542600726768102 -0.8607491738272322 -0.229692503420107
-0.4095504630018917 -0.8359198942009608 -0.365385205959396
-0.3668938963369249 -0.7753794239986872 -0.5139801724484843
0 0 0
0 0 0
0 0 0
-0.3248751163940601 0.7529948866212036 -0.5722367162899166
-0.4024675462111337 0.8173620782671261 -0.4122367126513998
-0.444123361103857 0.8560657670609136 -0.2643971304462706
-0.4767106139297176 0.86882583735713 -0.1337484762807905
-0.5054092447416787 0.8625752024723045 -0.022924122873258
-0.532352142290502 0.8436748286781629 0.06938285129327938
-0.5589064339839712 0.8162297645640398 0.1462619892215763
-0.5859213812089717 0.7824091125393181 0.2110263387769569
-0.6138310565626726 0.7430799678220609 0.266540044685067
-0.6427393240792492 0.6983168852314593 0.3150233151415657
-0.6724707094005218 0.6477480452057509 0.358058116694046
-0.7025909288462756 0.5907876258949777 0.3966559816671155
-0.7324096909355419 0.5268103810761392 0.4313315047780732
-0.7609814841396195 0.4553105370736181 0.4621682546718188
-0.787123288653372 0.3760667623042498 0.4888872249808735
-0.8094719190222229 0.2893114499906337 0.5109345332024412
-0.8266000595755706 0.1958772578543117 0.5276025410904863
-0.8371956989484193 0.09727343493372 0.5381832778138528
-0.8402804204141434 -0.004359791812762277 0.5421344918781493
-0.8354106591215384 -0.1064471808225614 0.5392198330190063
-0.822790002707851 -0.2063000998613309 0.5295817974980062
-0.803244284714848 -0.3014795344670926 0.5137204583919517
-0.7780657849073567 -0.3900914307445301 0.4923843113018369
-0.7487861402975716 -0.4709392787076683 0.4664070238199314
-0.7169511897531493 -0.5435223943372745 0.4365368236076075
-0.6839508434269792 -0.6079196140984375 0.4032926810269807
-0.6509197594682218 -0.6646164615124245 0.366862952368505
-0.6186975979779865 -0.7143238896387327 0.3270392376270174
-0.587822070662372 -0.7578129323719273 0.2831691592883337
-0.5585290576672151 -0.7957630181836916 0.2341079038233321
-0.5307368378747054 -0.8285994227951026 0.1781611783368673
-0.5039999204696378 -0.8562754689764492 0.1130327447944195
-0.4774239711631746 -0.8779419149678036 0.03583776920303043
-0.4495586318186914 -0.8914508688922129 -0.05667790494208699
-0.4183322096991036 -0.892728421748421 -0.1674339491585809
-0.3810008594637175 -0.8754318123875601 -0.2974180339988484
-0.332328606686261 -0.8324777282746121 -0.443326661847344
-0.2463512378531626 -0.7633950322901089 -0.5971089450703261
0 0 0
0 0 0
-0.3521652738943896 0.7838930740450026 -0.5113621694329425
-0.379958537162228 0.8553131777010461 -0.3522369629787284
-0.4076136500838886 0.889428454153791 -0.2068045870063969
-0.4330443841550966 0.8977045346464818 -0.08123502832446172
-0.4573205092793973 0.8889739381104745 0.0241513799354515
-0.4815002212323513 0.8692818033740916 0.1118332833993688
-0.5063466450812695 0.8421934546201599 0.1852653772562572
-0.532339587252788 0.8094445011256459 0.2478188117173214
-0.5597193957660295 0.7715677617528076 0.3023200076526083
-0.5885151461260837 0.7283547490083938 0.3509263204393678
-0.6185464173710421 0.6791620446190133 0.3951445896205204
-0.6494023399562476 0.6231187823296123 0.4358894171316978
-0.6804075134778557 0.5592924572330397 0.4735372877452312
-0.7105881896058538 0.4868577110118155 0.5079704656975743
-0.738659979328407 0.4052951789027933 0.5386253362929651
-0.7630661583826771 0.3146219719948015 0.5645733368387186
-0.7820988228373271 0.2156205709829146 0.584661612118898
-0.7941196941936733 0.1099938843018246 0.5977250678279632
-0.7978582687039666 0.0003516206146518352 0.6028449713016207
-0.7927069923063207 -0.1100417285348052 0.5995885608729862
-0.7788966643725154 -0.2177361915229115 0.5881419362113763
-0.7574639560036948 -0.3196420563611498 0.5692778857117569
-0.7300226326788997 -0.4134584683444838 0.5441682191480879
-0.6984396006280038 -0.4978620180686754 0.5141162662658906
-0.6645349651509057 -0.5724567483007341 0.4802983983075876
-0.6298771413707321 -0.63757101668517 0.4435741036869408
-0.5956862834534538 -0.6940015209453947 0.4043757418922283
-0.5628185611112889 -0.7427745475058019 0.3626585706227957
-0.531794092134216 -0.7849518148095499 0.3178768503655755
-0.502833786336445 -0.8214738234104189 0.2689589945884358
-0.4758830852513657 -0.8530094343392434 0.2142666425272143
-0.450606998885858 -0.8797649622943414 0.1515484862158505
-0.42635189294901 -0.9011938260638827 0.07793427514987071
-0.4020823761309781 -0.9155497331987782 -0.009922139109699276
-0.3763423318791338 -0.9192709972035442 -0.1153571971581168
-0.3473707308082746 -0.9063315119813652 -0.2406174677102585
-0.3138115339968309 -0.867891991314149 -0.3850789692301
-0.2790451979622704 -0.7922543256419308 -0.5426480083772963
0 0 0
0 0 0
-0.3327891842960695 0.8252901355190531 -0.4562319048800722
-0.3455749691563634 0.8895618678582516 -0.2987601445057832
-0.3640691019142259 0.9179130992445881 -0.1577632126528982
-0.3839813462795355 0.9225784328717288 -0.03751480919983365
-0.404628818706401 0.9123117379253521 0.06295086906378207
-0.4262512005761537 0.8926195811241178 0.1467657909772972
-0.4491930019570259 0.866536678362909 0.2175771864065975
-0.4737116782073886 0.8354031012051484 0.2787452321148465
-0.4999465662531631 0.7994641226992932 0.3330323518944076
-0.5279079713547894 0.7582740339266485 0.382535832638824
-0.5574505268393685 0.7109525680353125 0.4287136061877496
-0.5882262996641752 0.6563575674468946 0.4724241357494208
-0.6196217765163667 0.5932325947735698 0.5139493579769501
-0.6506901118273239 0.5203794993345336 0.5529986935269235
-0.6801005047643798 0.4368925275779036 0.5887174388157923
-0.706142901268119 0.3424657817543937 0.6197413906751711
-0.7268376047092622 0.2377389513026775 0.644350283164371
-0.7401913210071509 0.1245795605282503 0.6607546756582784
-0.7445888474310078 0.006141582733720194 0.6674951155198726
-0.7392163313820056 -0.1134450701044899 0.6638444331973536
-0.7243292746105245 -0.229753837232046 0.6500463646689685
-0.701212077415196 -0.3388800733592509 0.6272654289589801
-0.6718452292660076 -0.4380573579707318 0.5972685652536951
-0.6384537267203838 -0.525875977044026 0.5619886970436719
-0.6031191781097874 -0.6021405600791603 0.5231386077357789
-0.567548141917402 -0.6675327001460581 0.4819638999363094
-0.5329925411282141 -0.7232410642751109 0.4391370105649185
-0.5002725428617577 -0.770652945735967 0.3947422197930027
-0.4698445983255353 -0.811132450060163 0.3482961410692246
-0.4418748878579576 -0.8458655559081272 0.2987608488553216
-0.4162925579384369 -0.8757309783003787 0.2445317154279469
-0.3928125141917414 -0.9011444408695298 0.1834039950063927
-0.3709238243401725 -0.9218171504001211 0.1125551321133826
-0.3498598927473951 -0.936364641301992 0.02862366094985676
-0.3286142349548566 -0.9417186362871554 -0.07196314789177909
-0.3062208303469678 -0.9323598969613378 -0.1921817514746305
-0.2829526021984219 -0.8995310121955087 -0.3328389745923169
-0.2641931810889481 -0.8307913117545451 -0.4898854553661132
0 0 0
0 0 0
-0.2833243691371579 0.8671652226520487 -0.4095751194541168
-0.2960653488829473 0.9208778136499115 -0.2536323353166499
-0.3122835900249388 0.9427180133977762 -0.1173103005557737
-0.3294535961223347 0.9441696363096316 -0.002006457823902848
-0.3475080395095293 0.9329254824052878 0.09427728652811282
-0.3667739442228057 0.9136962362035982 0.1750316022512061
-0.3875477149823572 0.888979479746275 0.2439718287056831
-0.410038089864518 0.8597657680760308 0.3044200862375711
-0.4343718348766794 0.8260615440815816 0.3590869455374554
-0.4605885453769507 0.7872262371089375 0.4100402949404452
-0.4886103969897579 0.7421756583079328 0.4587321355308535
-0.5181856910493519 0.6895136627383954 0.5060182788089649
-0.5488088971386292 0.6276518864558167 0.5521430103242599
-0.5796244010647853 0.5549744752791007 0.5966899408226819
-0.6093350316836004 0.4701004817919673 0.6385267074931991
-0.6361587490795765 0.3722757256225417 0.6758053196607129
-0.6579041571280734 0.2618696604824878 0.7061065082212352
-0.6722407224936171 0.1408474242165342 0.7268111268499038
-0.6771854077211729 0.01296621966831385 0.7356981722941965
-0.6716844764165218 -0.1165811529292245 0.731606997590069
-0.6560112499173187 -0.2421371432707629 0.7148558203096556
-0.6317167391427573 -0.3588008563829072 0.687165123493425
-0.6011595211012541 -0.4633009461572373 0.6511216963664466
-0.5668982228346073 -0.5542196950806613 0.6094808729826249
-0.5312168023937428 -0.6316894966912238 0.5646034791112743
-0.4958836215105943 -0.6968621351966439 0.5181530646891046
-0.4621100424166631 -0.7513960850998058 0.4710182926324146
-0.4306219611196463 -0.797075180253094 0.4233625911980972
-0.4017706036733326 -0.8355679175668804 0.3747087364299269
-0.3756345040452955 -0.8682860904981546 0.3240030623591001
-0.3520919915190343 -0.8962854780629425 0.2696359978223282
-0.3308539086708278 -0.9201504433353286 0.2094250528161168
-0.3114567782024927 -0.9398025578427666 0.1405909939644657
-0.2932221917461492 -0.9541723839116162 0.05979806057061892
-0.2752213507624428 -0.9606834930876471 -0.03661194058518221
-0.2563808286454368 -0.9545520372978544 -0.1519844689223026
-0.2362109822180404 -0.9280078531293405 -0.2881072654583024
-0.2179586319717602 -0.8693575579778647 -0.4435216692967348
0 0 0
-0.1166951616766954 0.831107935138009 -0.5437295645740486
-0.202107873348869 0.9052901337875185 -0.3736337527544507
-0.2348661851882411 0.9469233705401211 -0.2194857748922669
-0.2543724192993005 0.9632259368219062 -0.08654748369179552
-0.2706159063976012 0.962357689254813 0.02519343439749783
-0.2866176443902165 0.9506909177289417 0.118478288609794
-0.3034796604139258 0.9322274944861055 0.1971090922286595
-0.3216872607874386 0.9090378457997458 0.2648914893892055
-0.3414985143523723 0.8818468709683727 0.3251535957949911