# OOMMF: rectangular mesh v1.0
# Segment count: 1
# Begin: Segment
# Begin: Header
# Title: 
# Desc: time = 3.3999999999999996e-10
# Desc: stepsize = 1.2453475367443725e-13
# Desc: step = 2174
# meshunit: m
# valueunit: (none)
# valuemultiplier: 384000.0000000001
# xmin: 0
# ymin: 0
# zmin: 0
# xmax: 9.357999999999999e-08
# ymax: 9.357999999999999e-08
# zmax: 2.3395e-08
# ValueRangeMaxMag: 1
# ValueRangeMinMag: 0
# meshtype: rectangular
# xbase: 1.16975e-09
# ybase: 1.16975e-09
# zbase: 1.16975e-09
# xstepsize: 2.3395e-09
# ystepsize: 2.3395e-09
# zstepsize: 2.3395e-09
# xnodes: 40
# ynodes: 40
# znodes: 10
# End: Header
# Begin: Data Text
0 0 0
0 0 0
0 0 0
0 0 0
0 0 0
0 0 0
0 0 0
0 0 0
0 0 0
0 0 0
0 0 0
0 0 0
0 0 0
0 0 0
0 0 0
0 0 0
-0.8423342552773034 0.02172781074520436 -0.5385173206375542
-0.8515772352084955 0.03914338699214834 -0.5227657292989251
-0.8612562110089104 0.01910973745119164 -0.5078115368255441
-0.8658557611971015 -0.01642862586257385 -0.5000239004828217
-0.8636630073935514 -0.05634211837864772 -0.5009109455347648
-0.8548009624451841 -0.09202793884902141 -0.5107310183198069
-0.8413207278670898 -0.1122335530819532 -0.528756146464313
-0.8294769477958843 -0.09430887688663071 -0.5505214154014404
0 0 0
0 0 0
0 0 0
0 0 0
0 0 0
0 0 0
0 0 0
0 0 0
0 0 0
0 0 0
0 0 0
0 0 0
0 0 0
0 0 0
0 0 0
0 0 0
0 0 0
0 0 0
0 0 0
0 0 0
0 0 0
0 0 0
0 0 0
0 0 0
0 0 0
0 0 0
0 0 0
0 0 0
-0.789791319040693 0.2355259057653356 -0.5663543237950779
-0.8170961636332866 0.2635782946719634 -0.5127185796843962
-0.8531390321718212 0.2451107866480864 -0.4605154655966331
-0.8886634413101604 0.1960992874662549 -0.4145146047294468
-0.9195455384238957 0.1138771743943924 -0.3761223097832087
-0.9319944213255111 0.07244322991980243 -0.3551596500968425
-0.9395034150778458 0.03274227735820062 -0.3409710784369586
-0.9425300859059523 -0.01077308072591056 -0.3339475675817839
-0.9405704440488386 -0.05600529443339631 -0.3349487226086978
-0.9336615497377333 -0.09958074858944826 -0.3440345695590757
-0.9223239082030759 -0.1393741118249271 -0.3604073602328567
-0.9057583025714496 -0.1807916364803986 -0.383296597299826
-0.8685134254680998 -0.2623831373659236 -0.42052291139447
-0.8271479137853534 -0.3116879769954502 -0.4676290556809111
-0.7861022562169474 -0.3304610258604054 -0.5223396913483719
-0.7554482110368764 -0.3021490652485871 -0.581381065060247
0 0 0
0 0 0
0 0 0
0 0 0
0 0 0
0 0 0
0 0 0
0 0 0
0 0 0
0 0 0
0 0 0
0 0 0
0 0 0
0 0 0
0 0 0
0 0 0
0 0 0
0 0 0
0 0 0
0 0 0
0 0 0
0 0 0
-0.763145392555462 0.3313611065975356 -0.5548053053602009
-0.8002089344705685 0.3580528239771871 -0.4811068867054787
-0.8543423631495943 0.3196891677951038 -0.4097535387552373
-0.8875354937263513 0.2971946940385223 -0.3520739428177986
-0.9167674108368177 0.2628413476384375 -0.3007522907629586
-0.942602630396094 0.2131447656405105 -0.2570400553423833
-0.9628783322118456 0.151379838237963 -0.223493762624334
-0.9744568473591337 0.09725114597147977 -0.2024254609532387
-0.9808162109198242 0.04598010224532791 -0.1894343965450506
-0.9830187513372352 -0.005419426026089349 -0.1834250919065604
-0.9811849269465041 -0.05714213878099662 -0.1844204845143731
-0.9753006020871746 -0.1084744164866826 -0.1924111133387763
-0.9651635679469546 -0.1596176359236131 -0.2073197950270561
-0.9494564555810133 -0.213543362164529 -0.2300688406347264
-0.9242710124450636 -0.2749962258463716 -0.2647643694382383
-0.8935514297050913 -0.3245460383093964 -0.3102188122755652
-0.8596898120719432 -0.3587561650417417 -0.3636309132406773
-0.8219949407108882 -0.3810382002974631 -0.4232424923844167
-0.7621646396879489 -0.4186414293518243 -0.4938060506308117
-0.7211062147746794 -0.3916825792520306 -0.5714810444133821
0 0 0
0 0 0
0 0 0
0 0 0
0 0 0
0 0 0
0 0 0
0 0 0
0 0 0
0 0 0
0 0 0
0 0 0
0 0 0
0 0 0
0 0 0
0 0 0
0 0 0
0 0 0
0 0 0
-0.7663178583306199 0.4124151355295261 -0.4926161751198738
-0.8165899260584725 0.4105839645921593 -0.4057113514305488
-0.8555718074627578 0.3991620656867959 -0.329646064122657
-0.8927556647612138 0.3665169064356441 -0.2620165649984894
-0.9215427647975523 0.3290481978416158 -0.2061218478145092
-0.9454355348581659 0.2844243046865252 -0.1589165325919228
-0.9653920167816715 0.231493211619777 -0.1201213840586978
-0.9808262470339391 0.1724452010694445 -0.09078835694865538
-0.9909636893773025 0.1136274845119668 -0.07127244277564146
-0.9966696493235943 0.05574986146475622 -0.05951103312700483
-0.9985226466694516 -0.001804033826581911 -0.05430717770410698
-0.9967097554759281 -0.0592733130247465 -0.05528415416903206
-0.9912117162550357 -0.1166270967810742 -0.06242959118209643
-0.9817818593104615 -0.1741109389128785 -0.07609048350331717
-0.9677406382516536 -0.2323475675405314 -0.09743030808880705
-0.948157309872365 -0.290652529435524 -0.1285255728185298
-0.9240455126728419 -0.3427760117163819 -0.1692468501951954
-0.8960296850112012 -0.3865675801304251 -0.2183948478578059
-0.8629556622031785 -0.4232736528661301 -0.2759473497985362
-0.8209300088671229 -0.4553053725076686 -0.3446315979521872
-0.7771930827511769 -0.4663703438316825 -0.4224566421753123
-0.7220272712771298 -0.4668699536952815 -0.5105967742442826
0 0 0
0 0 0
0 0 0
0 0 0
0 0 0
0 0 0
0 0 0
0 0 0
0 0 0
0 0 0
0 0 0
0 0 0
0 0 0
0 0 0
0 0 0
0 0 0
-0.662619370286938 0.5038421775024438 -0.554146758801436
-0.7131779500490677 0.5374141841903901 -0.4500702236260321
-0.7917360749019634 0.5012909033757608 -0.3490865478524566
-0.8402890832220133 0.4732118280882498 -0.2645464465368685
-0.8761627974246869 0.4418557332406867 -0.1926194782759038
-0.9062497858140408 0.4018752998908225 -0.1311776240433783
-0.9310012874152767 0.3560814463187882 -0.08026584839529671
-0.9516389211052032 0.3048243984493367 -0.03828119574574552
-0.9687004182726765 0.2481917847247666 -0.004509726541146966
-0.9820420846152971 0.1874901417740025 0.02099501802822306
-0.9913742403060476 0.1252878584998621 0.03847165411215018
-0.996820663307542 0.06279612132847393 0.04904296431916056
-0.9985607581353388 0.0003183788903546133 0.05363124972493841
-0.9966826142937616 -0.06205029960664947 0.05266428280416571
-0.9911820999798591 -0.1242121157143054 0.04614536801556687
-0.9819594937650644 -0.1860728333588272 0.03365194333876846
-0.9688249650514891 -0.2473354266044754 0.01426092000406293
-0.9516764466277433 -0.3068200960136198 -0.01316698964017635
-0.9308818535965465 -0.3620333785748107 -0.04889588369551123
-0.9065563157799067 -0.4117610217788659 -0.0927820417062801
-0.8779980218484984 -0.456046616533078 -0.1453993025390926
-0.8437431766916188 -0.4946930609742423 -0.2082696022233427
-0.8032237262135727 -0.5249917980426719 -0.2814520521074687
-0.7489825942863062 -0.5520825563537752 -0.3663740225862559
-0.6627560519744411 -0.5869371686682465 -0.465036746512524
-0.6066479754454224 -0.5527345244400835 -0.5713692145889242
0 0 0
0 0 0
0 0 0
0 0 0
0 0 0
0 0 0
0 0 0
0 0 0
0 0 0
0 0 0
0 0 0
0 0 0
0 0 0
-0.6407307217401517 0.5508369221710977 -0.5348297181266349
-0.7028672280747116 0.5726094867700193 -0.4220142596637534
-0.7532376499869352 0.5761333691789224 -0.3173379642600334
-0.8039409689992504 0.5517963347390615 -0.2218101064719171
-0.8437147364722273 0.5177198734631936 -0.141815288600539
-0.8754275936695408 0.4774370518963827 -0.0753683601947629
-0.9020558558943336 0.4311515862179066 -0.0200883684883395
-0.9247109095605086 0.3798217990228802 0.02539950249116996
-0.9440148307644208 0.3239315789871641 0.06248464956854476
-0.9601655795595905 0.2638425043014032 0.09202821715625624
-0.9730123478248247 0.2003925014105556 0.1144107353303979
-0.9822879720154425 0.1349128748405122 0.1300340579850407
-0.9878411413076034 0.0684391629015241 0.1395921219891354
-0.9896174615505056 0.001589950967630739 0.1437176114825651
-0.9876066327703532 -0.06523156198481968 0.1427514701466321
-0.9818234967923681 -0.1316739633670385 0.1366915817364846
-0.9723099508739522 -0.1973321098474997 0.1251934417396778
-0.9591593115259157 -0.2615929305412758 0.1076222737353103
-0.9425722288164952 -0.3234517102247023 0.08328616101501478
-0.9228564415707481 -0.3816449372041676 0.05179893973627803
-0.9001303850339996 -0.4354315272901476 0.01283257496811931
-0.8740722228083323 -0.4845758385640714 -0.03440938817862694
-0.8438609967784793 -0.5287415042030789 -0.09127453012257182
-0.8081332719970883 -0.5671037389642575 -0.1591036264327074
-0.7635030839625858 -0.5995241730819697 -0.240070420231232
-0.7068197045120982 -0.6225237841379374 -0.3359613720296014
-0.6504227333014431 -0.6180826485215695 -0.4415021037336529
-0.5823729484302916 -0.59477911970991 -0.5541475865631039
0 0 0
0 0 0
0 0 0
0 0 0
0 0 0
0 0 0
0 0 0
0 0 0
0 0 0
0 0 0
0 0 0
-0.5978225519025075 0.5969686208162353 -0.5350108991390127
-0.6652935900761328 0.6226846229584387 -0.4118838420413171
-0.7175938899391467 0.6289495436036896 -0.2991345528733075
-0.7606709267900874 0.617956825181191 -0.1987689697822362
-0.7994135004157733 0.5904180457207375 -0.111106195328184
-0.8326919522343843 0.5524490514563188 -0.03773802100140767
-0.8613140223324591 0.5075613636734264 0.02279510998988391
-0.8863986275502034 0.4571888332520195 0.07263500414243829
-0.9085260123900627 0.402120737934886 0.1134874307283132
-0.9278877166388976 0.3427924296321074 0.1466892480639558
-0.9443884996544136 0.2795734282732653 0.1731157414102426
-0.9577311167063052 0.2130686144435351 0.1932689153268193
-0.9675449072889291 0.1441608205120946 0.20754399583832
-0.9735177034476725 0.07374644390290436 0.2163902564480309
-0.9754487053429941 0.002593881693070534 0.2202114779534391
-0.9732543808855761 -0.06863528882818422 0.2192375588591168
-0.9669663707099571 -0.1393140329376943 0.2134657774507384
-0.9567335383670916 -0.2087790050745754 0.2026629310052888
-0.942825708919771 -0.2762683123289937 0.1864282762963283
-0.9256212251688157 -0.3409150889010263 0.1643236126568097
-0.9055328549964272 -0.4018971392828123 0.1359740341326631
-0.8828448499562117 -0.4586968705216481 0.1009066493321408
-0.8575707046386607 -0.5110543923373142 0.05827430495757776
-0.8293676382285806 -0.5586623731591253 0.006758215397586249
-0.7974315676945489 -0.6008676680491757 -0.05532576558312422
-0.7603385312364628 -0.6363728661471725 -0.1300572687273225
-0.7170154496881731 -0.6618159593641419 -0.218834368505924
-0.6686101802909242 -0.6711930952567439 -0.3200941356710686
-0.6100661622803634 -0.663599750590721 -0.4329603315044484
-0.5360428592248569 -0.6361567769317791 -0.5549437883586144
0 0 0
0 0 0
0 0 0
0 0 0
0 0 0
0 0 0
0 0 0
0 0 0
0 0 0
-0.554410028810857 0.6213800663182361 -0.5536391723282308
-0.618532241724666 0.6630174838721622 -0.4216938249807387
-0.6702849966265034 0.6792196806603592 -0.2989626209094495
-0.7127782988688151 0.6750535342212894 -0.1903938617629879
-0.7490829451326202 0.6553838909142992 -0.09667831629415687
-0.7817044747481949 0.6234196536589068 -0.01691300063433067
-0.8113058460601061 0.5825075373729818 0.04967688650025273
-0.83834102914026 0.5349897726370962 0.104739018678605
-0.8631459745116317 0.4821085551498663 0.1501677985976792
-0.8857953499554275 0.4244860411519444 0.1875585211727021
-0.9061198089101573 0.3624614496685838 0.2181022452996949
-0.9237605091167397 0.2963489822470355 0.242577415514156
-0.9382342095353968 0.2266378800506588 0.2614418470398941
-0.9490225373394324 0.154051711243701 0.2749987161510251
-0.9556707504840709 0.07945628579125195 0.2835138714727569
-0.9578598628059691 0.003759746717383404 0.2872113290417883
-0.9554450277826082 -0.0721293245738919 0.2862204734501088
-0.9484716146887331 -0.1473045823299831 0.2805404715087217
-0.9371759231747004 -0.2208572971113636 0.2700432249368792
-0.9219679445194463 -0.2918878019873991 0.2545125150745076
-0.903384195073988 -0.3595589517908914 0.2336971464899766
-0.8819991315785859 -0.4232014307197408 0.2073115552288015
-0.8583080462493644 -0.4824026817298074 0.1749141229389098
-0.8326271503776319 -0.5369429221065515 0.1357362400160749
-0.8050218450674932 -0.5865932634139587 0.0885899107206375
-0.7752435928934081 -0.6308571479904508 0.03188464375014462
-0.7427056754785504 -0.668636040083372 -0.03625086914236344
-0.7066520324317744 -0.6977513596505646 -0.1174135646585628
-0.6661074266936984 -0.7150111412683513 -0.212273323725871
-0.6181992402163334 -0.7172758072304355 -0.3214733515516868
-0.5598511235655838 -0.6995404941205443 -0.4440831189405171
-0.4890215366643983 -0.6559770257451399 -0.5749365863927516
0 0 0
0 0 0
0 0 0
0 0 0
0 0 0
0 0 0
0 0 0
0 0 0
-0.5861121050113727 0.6758124796573793 -0.4469341033066073
-0.6206779875802094 0.7174630738147916 -0.3162365782853268
-0.6587216961706701 0.7257934808985557 -0.1982663614413514
-0.6934431578160433 0.71402628500386 -0.0964523260564483
-0.7249354087788238 0.6887418425245458 -0.01016501129229944
-0.7543182424536663 0.6535350079845086 0.06241780547487349
-0.7822175338924336 0.610723292327867 0.1230966688397754
-0.8088656297319452 0.5617523784489523 0.1736970303295017
-0.834230406254126 0.5073893450631914 0.2159066506558349
-0.8580573258134179 0.4479897515955645 0.2510832692221248
-0.8799040524923275 0.3837432361238455 0.2801963367654496
-0.8991820754505415 0.3148780110110014 0.3038477141105582
-0.9152119125169221 0.2418153821547923 0.3223545813858532
-0.9273010354162033 0.1652384919603199 0.3358705561532833
-0.9348381015188042 0.08606669884735935 0.3444854819847062
-0.9373807951039468 0.005385580383934051 0.3482646127504488
-0.9347197511070159 -0.07562452366362983 0.3472461926516785
-0.9269115331446715 -0.1557523160558209 0.3414326079428292
-0.9142783670305102 -0.2338189658627546 0.3307926220200424
-0.8973719957979033 -0.3087492529096943 0.3152735320089406
-0.87690148539642 -0.3796520169484162 0.2948018502936358
-0.8536324559376732 -0.4458942114341104 0.2692396374595845
-0.82828032321325 -0.5071239080188202 0.2382793488606862
-0.8014229249236621 -0.5631974321980553 0.2013205100637251
-0.7734370319338183 -0.6140229613935246 0.1573879300166666
-0.7444449463603485 -0.6593572324540878 0.1051178474333595
-0.714265819733314 -0.6985629320404471 0.04282719626300456
-0.6823645123046008 -0.7303425639771012 -0.03127957145898292
-0.6477238401972764 -0.7525351698170722 -0.1189312617795778
-0.6087838664451671 -0.7616868195137276 -0.2218454257701387
-0.5652734475652329 -0.7512642622755737 -0.340687448705193
-0.5250415714399982 -0.7076190156740013 -0.4728706767355891
0 0 0
0 0 0
0 0 0
0 0 0
0 0 0
0 0 0
0 0 0
-0.4664836539147375 0.7339250688662177 -0.4937073970684177
-0.5498877440736383 0.7592685092431893 -0.3480442497574538
-0.5959622242341959 0.7720419552754816 -0.2208625060535191
-0.6315650459374791 0.7674193942765546 -0.1104222171403703
-0.662690313422536 0.7487126122209696 -0.0164612513859727
-0.6915990109374004 0.7195594914249326 0.06264939242084303
-0.7194804376272634 0.6823979765433452 0.1291545643066058
-0.7468772572472386 0.6386564393096886 0.1851818434272407
-0.7738874425046649 0.5890756916711262 0.2325683895454688
-0.8002991341487719 0.5339468222984973 0.2728041180738701
-0.8256663244693634 0.4733186712908722 0.3069927622024578
-0.8493536979110546 0.4071857606076696 0.3358542127220824
-0.8705767397261442 0.335655922160198 0.3597655377695085
-0.8884563509735564 0.2590869689717025 0.3788393523959837
-0.9021007703515973 0.1781677951851009 0.393027272450569
-0.9107123884159231 0.09392748428842743 0.4022195585510625
-0.9137009511698381 0.007681722252303582 0.4063146108307831
-0.9107776458939386 -0.07906394223557084 0.405256675180144
-0.9020085238968313 -0.164737441548842 0.3990516234391242
-0.8878134918234604 -0.2478354798639698 0.3877689758823283
-0.8689092758422329 -0.3270533788472663 0.3715276002397565
-0.8462072207314628 -0.4013897903613284 0.3504562394588251
-0.8206894106100613 -0.470203812401689 0.3246186472084237
-0.7932911149701191 -0.5332038689078192 0.2939095797880669
-0.7648103639069158 -0.5903620634028199 0.2579491061340109
-0.7358443918309325 -0.6417743914226207 0.2160061608498448
-0.706737685172476 -0.6874921187838399 0.1669623639241971
-0.6775201882967866 -0.7273347383804779 0.1093186754186495
-0.6478121821605437 -0.7606826382919335 0.04124682346093467
-0.6166724504006641 -0.7862364140991462 -0.03933687915119343
-0.5824032320042838 -0.80168228959433 -0.1345807634907626
-0.5422156612443108 -0.8034437773919607 -0.2459273739776265
-0.489755295600115 -0.7879892648364268 -0.3731121398912007
-0.397982464006448 -0.759081311637834 -0.5151752329698516
0 0 0
0 0 0
0 0 0
0 0 0
0 0 0
-0.3910323552680782 0.7333516402319509 -0.556137634855443
-0.4643200190130772 0.7874006767173185 -0.4054714468970701
-0.5214241858558183 0.8115828499166302 -0.2635338614406062
-0.5621861837958255 0.8149462816855834 -0.1407453470489436
-0.5947408663172683 0.8030736839548116 -0.03682336311951609
-0.6236391957672262 0.7800865878054306 0.05038917571152388
-0.6511564592132811 0.7488125972850576 0.1235919081980219
-0.6784165709850932 0.7108880169846086 0.1854432083429266
-0.7058813173395826 0.6670734240400512 0.2382112775886506
-0.7335761777615858 0.6175678289875979 0.2836828652214414
-0.7612090171112553 0.5622453084508635 0.323173398338275
-0.7882330667100182 0.5008406635767459 0.3575573551934348
-0.8138827025769549 0.4331141717482757 0.3873074498080776
-0.8372072884317806 0.3590085073751556 0.4125492065547666
-0.8571262181801573 0.2787919969513808 0.4331393177074115
-0.872521459627281 0.1931649708993023 0.4487689789940366
-0.8823694852795563 0.1033011770250095 0.4590783792259636
-0.8858935713712185 0.01080593925674591 0.4637626676220572
-0.8827012239651948 -0.08241067638487758 0.462652169159654
-0.8728663454567166 -0.1743279043267612 0.4557566507930243
-0.8569284926201604 -0.2630368270874248 0.4432664956112963
-0.8358068392533745 -0.3469414424559167 0.4255097683530792
-0.8106550732580626 -0.4248940636463796 0.4028689450417225
-0.7826981413264777 -0.496241472504691 0.3756700953369228
-0.7530900026590996 -0.5607814675204841 0.34406335692789
-0.7228122100929834 -0.6186509674157339 0.307917991445892
-0.6926110629890054 -0.6701768228007203 0.2667450873136583
-0.6629532393105209 -0.7157149577466075 0.2196476763943986
-0.6339749826682417 -0.7554835157075928 0.1652887741042847
-0.6053975432456347 -0.7893768182495543 0.101872731593687
-0.5763832346023894 -0.8167283089950688 0.02715209301953665
-0.5452905396104851 -0.8359914452772694 -0.06145348512921949
-0.5092027176529957 -0.8443969756415647 -0.1664522149512636
-0.4629137066894715 -0.8377749530586892 -0.2895583329599138
-0.3980027435108489 -0.8103040317457517 -0.4301176493640044
-0.3164413533653013 -0.7527447997100123 -0.5772695526267337
0 0 0
0 0 0
0 0 0
0 0 0
-0.4161243949127458 0.7731955568266937 -0.478548972271344
-0.4517987518487947 0.829616429059617 -0.328046442538614
-0.4899329471158274 0.8505542420486338 -0.1911104096156805
-0.5227511094496859 0.8492710078074128 -0.07395967054350007
-0.5515249739903159 0.8338120502545586 0.0240347231161546
-0.5783939771510941 0.8088710374875923 0.1057735879559966
-0.6048422508909557 0.7769897304563181 0.1745073359563412
-0.6316950492346797 0.7393299571197531 0.2331363962955996
-0.6592936617244576 0.6961932309358498 0.2839838953339754
-0.6876177376598972 0.6473708039262629 0.3287748303616752
-0.7163499269994827 0.5923798923783373 0.3686852928903789
-0.7449034300273347 0.5306414504833384 0.4043989749770018
-0.7724327825430238 0.4616419186018831 0.436158612711492
-0.7978509185217828 0.3851013240275518 0.4638220370424128
-0.8198777966810835 0.3011465479638791 0.4869406074243656
-0.8371433150006854 0.2104643111541508 0.504872106458726
-0.8483522378147795 0.1143896398309728 0.516926968627093
-0.8524921654632558 0.01488226460864406 0.5225281102714827
-0.849033872607668 -0.08563742061442854 0.5213518153371415
-0.8380572328468436 -0.1845764944157859 0.5134117180024916
-0.8202513003417868 -0.2795117289663182 0.4990601142726862
-0.7967861748003625 -0.3684870434456614 0.4789040514128908
-0.7691040832509296 -0.4501891800568692 0.4536613398631959
-0.738699162663086 -0.5239773064100086 0.4239944922380087
-0.7069400489487474 -0.5897924467708111 0.3903596251207879
-0.6749580318074766 -0.647996538903892 0.3528911175804142
-0.6435915453986906 -0.6991900604346611 0.3113248818849845
-0.6133622185825931 -0.7440363865819694 0.264946493197183
-0.5844523568902916 -0.7830958527388558 0.2125472369817746
-0.5566587343218449 -0.8166468135511818 0.1523779361321784
-0.5293008731884769 -0.844451077253882 0.08211555130834504
-0.5010711409641559 -0.8654054072702849 -0.001092135628264145
-0.4698567553793526 -0.877018930165304 -0.1003614744615287
-0.4328382658267367 -0.8746324525126766 -0.2183325643319447
-0.3884168560594934 -0.850220454917587 -0.3553273476227093
-0.3457409766284282 -0.7904572819873275 -0.505609001535007
0 0 0
0 0 0
0 0 0
-0.3000539541603278 0.7665450461978367 -0.5677819271008083
-0.3776216669295667 0.8311591158586067 -0.4081377228221788
-0.4187337156858719 0.8700868470549694 -0.2600210643964155
-0.450366147190599 0.8834464340426689 -0.1292003546511671
-0.4777691557213901 0.878295928441244 -0.01824543572520979
-0.5031586312724333 0.8609953006105351 0.07428650013714108
-0.5280003729722853 0.8356038516951144 0.1515975236387989
-0.5532529781238756 0.8042266467543403 0.21709593005704
-0.5794692328893207 0.7676484564820145 0.2737357400768885
-0.6068805680079969 0.7258326150780997 0.3238255565318734
-0.635444744799739 0.6782532711616309 0.3690290997535846
-0.6648577210846879 0.6241152902209537 0.410419681821534
-0.6945405183544495 0.562522685868687 0.4485328262758595
-0.723616202190614 0.4926442583346519 0.4834058612151208
-0.7508985505030887 0.4139062079914081 0.51461929407916
-0.7749226133678689 0.3262166019472651 0.5413664857608859
-0.7940500088888917 0.2301929227027338 0.5625795958983261
-0.8066696472891631 0.1273274587496815 0.5771237288404668
-0.8114777386863199 0.02000203167834798 0.5840409218070892
-0.8077680438985045 -0.08871811424376905 0.5827863102899831
-0.7956231973833786 -0.1955041718118516 0.5733775776829878
-0.7759175705529869 -0.2972797445611994 0.5563961512993937
-0.7501263700126479 -0.3916551424164733 0.5328383229745955
-0.7200261460294374 -0.4771511139553202 0.5038741544127774
-0.6873980826819585 -0.5531934029593685 0.4705963608522704
-0.6538115335199839 -0.6199443247925949 0.4338196777391499
-0.6205080056112615 -0.6780640587581995 0.3939529758647482
-0.5883659812664448 -0.7284728191754299 0.350931366239859
-0.5579087954808932 -0.7721476962595537 0.3041803923432972
-0.5293212776427355 -0.809950852804719 0.2525838495936941
-0.5024477788626216 -0.8424599402651265 0.1944414527936286
-0.4767553307336188 -0.8697508064142562 0.1274279771432791
-0.4512537386117342 -0.8910705837618068 0.04861355925382199
-0.4243905750058729 -0.904344698680664 -0.0453134175974727
-0.3939875565384606 -0.9055482723814134 -0.157340813776624
-0.3571921054382903 -0.8883511608950106 -0.2885238547313674
-0.3086462844567716 -0.8456010800506425 -0.4355413694566978
-0.222158506864232 -0.7764868509022192 -0.5896725940755673
0 0 0
0 0 0
-0.326765253925392 0.7962312910689637 -0.5091563610029092
-0.3543381862477727 0.8674963010304294 -0.3491340966808605
-0.3812193950336594 0.9018423985274499 -0.2033520618740472
-0.4054051487892311 0.9108318468038958 -0.07766602978770823
-0.4280406041468833 0.9033320759596398 0.02779211658039056
-0.4502629773683118 0.885375283177983 0.115645402627725
-0.4729261109136444 0.8604906438218426 0.1894643647527563
-0.496613303073397 0.8303649953413572 0.2527235678014171
-0.5216818619756397 0.7954662206763867 0.3083529254741307
-0.5482925322809732 0.7554920753523505 0.3586182135986899
-0.576410711303377 0.7096589138907771 0.4051356782981436
-0.605780061546074 0.656890202415059 0.4489162271564003
-0.6358745180813179 0.5959672259297496 0.4903943952294417
-0.6658394478989218 0.525695204667292 0.5294359086910069
-0.6944431321547113 0.4451245925390107 0.5653431111459066
-0.7200744176154503 0.3538428433121055 0.5968987144671816
-0.7408353766518471 0.2523090101752755 0.6224974763687705
-0.7547712435522042 0.1421408056090817 0.6404032801972988
-0.7602356299252112 0.02620675042618048 0.6491186280059419
-0.7563019017010143 -0.09162003560666684 0.647775580397148
-0.7430506937272349 -0.207066674013591 0.6363953637986561
-0.7215775756332061 -0.3162346220659067 0.6158907907658121
-0.6937125210248337 -0.416228049242915 0.587807068005146
-0.6615966535706485 -0.5054279670963004 0.553924577953551
-0.6272936207825995 -0.5834137461704009 0.5158789723422293
-0.5925368957479689 -0.6506713592399149 0.4748966302704636
-0.5586246471518633 -0.7082425583055006 0.4316607258013344
-0.5264188298241234 -0.7574152134403065 0.386271161304821
-0.4963953478211939 -0.7994882553479105 0.3382457512256877
-0.4687011672724636 -0.8355984130630084 0.2865213916691237
-0.4431923929791879 -0.8665680982900255 0.2294345959775664
-0.4194377624775627 -0.8927201872227075 0.1646894979434605
-0.396684207925544 -0.913595314833724 0.08936016951836975
-0.3737951056949842 -0.9275113032311662 3.656362635197068e-05
-0.3492119214170286 -0.9309502538707223 -0.106689543809429
-0.3210707184011399 -0.9179090882423167 -0.2331448037326463
-0.2879122553368108 -0.8795562499407565 -0.3787972233491473
-0.2530381103360498 -0.8042409318619484 -0.5377436547606912
0 0 0
0 0 0
-0.3070926929493661 0.835883439066592 -0.4549647835067155
-0.3194348370485248 0.9000214433377273 -0.2965177674475103
-0.3368838110560093 0.9286645225734826 -0.1552143754996422
-0.3552406390911133 0.9341222306273698 -0.03492487059222614
-0.3738870843505855 0.9251558164682429 0.06553749622007674
-0.3931292322154866 0.9072566232224869 0.1494484071396941
-0.4133885375257876 0.8834362325961588 0.2205682206905507
-0.435012549236423 0.8550056377166957 0.2823640229907033
-0.458246321965324 0.822168161014188 0.3377126343798825
-0.4832249972690793 0.784409073595584 0.3888393077804957
-0.5099503602658153 0.7407316516501419 0.4373411143585946
-0.5382435209731129 0.6898050165095211 0.4842137454975486
-0.567673564623229 0.630086660230498 0.5298466991758398
-0.5974681583695681 0.5599790637882625 0.5739819229325057
-0.6264243219577926 0.4780739645362858 0.6156605016502824
-0.6528599176005644 0.3835193826101705 0.6532126844703013
-0.6746719252306789 0.2764929473890134 0.6843752211686691
-0.6895767704148114 0.1586692517543792 0.7066172558408003
-0.6955610390597888 0.03345251503808137 0.7176877943644389
-0.6914437499647377 -0.09429195387701091 0.7162503529274918
-0.6772964231390353 -0.2190977099598388 0.7023288038329502
-0.6544598410894505 -0.3360523698985138 0.6773116868080478
-0.6251408945432942 -0.4416960556233663 0.643508707335316
-0.5918349886850947 -0.5343330191650564 0.6035060652537543
-0.5568393604160871 -0.6138179894070546 0.5596046841938365
-0.5219805575976174 -0.6810802070183694 0.5134842247799779
-0.4885397288021262 -0.7376272738546888 0.466084689994902
-0.4573008097549497 -0.7851547503961406 0.4176218233376229
-0.4286458676177097 -0.8252857063187351 0.3676495928465671
-0.402648963985021 -0.8594061275048122 0.3151109642792064
-0.3791416902720618 -0.8885413056672901 0.2583523307824234
-0.3577414504066351 -0.91321103176987 0.1951068069411365
-0.3378414553103891 -0.9331991446527648 0.1224847235091209
-0.3185806887340958 -0.9471711714789108 0.03705558911926685
-0.2988599252390898 -0.9520926267416496 -0.06482572938479406
-0.2776232048536889 -0.9424690969029885 -0.1862185745558995
-0.2550575275088747 -0.9095758570849574 -0.328050937918525
-0.2364621131760981 -0.8410531619638012 -0.4865339122640736
0 0 0
0 0 0
-0.257491922159711 0.8757201393112334 -0.4084264286590802
-0.2695810497815518 0.9294382910826581 -0.2519335639965902
-0.28449903152405 0.9516875540854941 -0.1155469621437386
-0.2998214995847396 0.9539952549644687 -0.0003491303991902915
-0.3155318835772125 0.944064813062241 0.09581888740729416
-0.3320074443354306 0.9266056001386614 0.1765591082259038
-0.3496036246709002 0.9041108314994133 0.2456845741645313
-0.3685995663600105 0.8775640408095332 0.3066198199028487
-0.3892071155998997 0.8469552363475371 0.3621942141861091
-0.4115713296636101 0.8116042877024178 0.4146173184781097
-0.4357472663784872 0.7703431490392387 0.4655059103512909
-0.4616496226610157 0.7216186972081158 0.515893479059973
-0.4889732704046802 0.6635781842054953 0.566188249857138
-0.5170853379212726 0.5942025362465144 0.6160731281471803
-0.544901569846421 0.5115594481875625 0.6643712893773648
-0.5707858490037162 0.4142408913334784 0.7089485161310033
-0.5925525600040648 0.3019980480062735 0.746778844526965
-0.6076837142460048 0.1764526654922733 0.7743287159087225
-0.6138415433726659 0.04155918555869544 0.7883345696628815
-0.6095910852297609 -0.0966423080414938 0.7868030078137823
-0.5949863406959142 -0.2312213502216453 0.7697583657141793
-0.5716005565536176 -0.35606193290209 0.7392514482134084
-0.5419734885560481 -0.4671182888460365 0.6986166630763522
-0.5088658414409232 -0.5627250092064462 0.6514569206234787
-0.4746930138822898 -0.6431580977233169 0.6008445754970847
-0.4412614183271899 -0.7099083216284531 0.5489248906531281
-0.409746375141357 -0.7650148007510649 0.4968503423469949
-0.3807947523952802 -0.8105990187655883 0.4448871624631148
-0.3546612379175006 -0.8485936348627623 0.3925611407019677
-0.3313258249725716 -0.8806014811313427 0.3387686956250968
-0.3105728257222596 -0.907809177032067 0.2818279936756662
-0.2920247547262605 -0.9308870417712748 0.2194786050834825
-0.275133781163504 -0.9498106784695839 0.1488659716920604
-0.259139275302916 -0.9635420781857866 0.06658452944111129
-0.2430314774511299 -0.9695201340582303 -0.03108714563338699
-0.2256581977529674 -0.9629675465634907 -0.1475529804930185
-0.2064522757691406 -0.9361307850025067 -0.2846693014716072
-0.1885608582822207 -0.877403358467426 -0.4411441366197142
0 0 0
-0.09113734318340484 0.8368333510598305 -0.5398184206114538
-0.1762395492109462 0.9114705300446406 -0.3717002746219915
-0.2081420832005141 0.9534722629798726 -0.2180997866321518
-0.2261618439504795 0.9703315599771678 -0.08548382334216395
-0.2403261958504483 0.9703449448458753 0.02596165634366434
-0.253692765110593 0.9599380088128534 0.1189915970434682
-0.2674012454583873 0.9431350212222179 0.1974662139999376
-0.2819785035327627 0.922020994005497 0.2652647925348154
-0.2977300191253801 0.8973335013974468 0.3258058056287496