# OOMMF: rectangular mesh v1.0
# Segment count: 1
# Begin: Segment
# Begin: Header
# Title: 
# Desc: time = 2.6e-10
# Desc: stepsize = 4.535986176185969e-14
# Desc: step = 1662
# meshunit: m
# valueunit: (none)
# valuemultiplier: 384000.0000000001
# xmin: 0
# ymin: 0
# zmin: 0
# xmax: 9.357999999999999e-08
# ymax: 9.357999999999999e-08
# zmax: 2.3395e-08
# ValueRangeMaxMag: 1
# ValueRangeMinMag: 0
# meshtype: rectangular
# xbase: 1.16975e-09
# ybase: 1.16975e-09
# zbase: 1.16975e-09
# xstepsize: 2.3395e-09
# ystepsize: 2.3395e-09
# zstepsize: 2.3395e-09
# xnodes: 40
# ynodes: 40
# znodes: 10
# End: Header
# Begin: Data Text
0 0 0
0 0 0
0 0 0
0 0 0
0 0 0
0 0 0
0 0 0
0 0 0
0 0 0
0 0 0
0 0 0
0 0 0
0 0 0
0 0 0
0 0 0
0 0 0
-0.8374782924977648 0.00401343066854478 -0.5464558554625401
-0.8460584144799368 0.02272888562565613 -0.5326054421857801
-0.8548844438632959 0.004055616530958378 -0.5188026017813484
-0.8585804297844547 -0.03004086142928485 -0.5117979994448268
-0.8555034733177694 -0.06840486092364959 -0.5132587867180142
-0.8458274082754415 -0.1024069943247097 -0.5235349108927007
-0.8316645257432301 -0.1207469605627296 -0.5419910406410331
-0.8193915874498019 -0.100636227046671 -0.5643312646153001
0 0 0
0 0 0
0 0 0
0 0 0
0 0 0
0 0 0
0 0 0
0 0 0
0 0 0
0 0 0
0 0 0
0 0 0
0 0 0
0 0 0
0 0 0
0 0 0
0 0 0
0 0 0
0 0 0
0 0 0
0 0 0
0 0 0
0 0 0
0 0 0
0 0 0
0 0 0
0 0 0
0 0 0
-0.7909823529370741 0.2156291090700601 -0.5725827491845887
-0.8177319996098855 0.2445138889642152 -0.5210828484201074
-0.8529875923827865 0.2268261195415925 -0.4700660365679696
-0.8875641983848994 0.1785044579730292 -0.424695128567688
-0.9172242055727492 0.09683010690895981 -0.3864242320396558
-0.9287798247401023 0.05636802115666283 -0.3663204653669052
-0.9354449795946551 0.01787068460482222 -0.3530202951430832
-0.9376368064998872 -0.02427607029755569 -0.3467677774932392
-0.9348714241260301 -0.06799710029672565 -0.3484132814687246
-0.9272153704920282 -0.1099249728355552 -0.3580337373355097
-0.9152105965868774 -0.1479366737854209 -0.3748390380475295
-0.8980299091876962 -0.1874709564836619 -0.3979911087944533
-0.8599164475443992 -0.2673506903937927 -0.4348187111757982
-0.8179048714362867 -0.3148363560336245 -0.4815700262685162
-0.7764043393161628 -0.3316443530736208 -0.5359182073464305
-0.7455109573031746 -0.3011468752210782 -0.5945788190689978
0 0 0
0 0 0
0 0 0
0 0 0
0 0 0
0 0 0
0 0 0
0 0 0
0 0 0
0 0 0
0 0 0
0 0 0
0 0 0
0 0 0
0 0 0
0 0 0
0 0 0
0 0 0
0 0 0
0 0 0
0 0 0
0 0 0
-0.7677530963141682 0.311628075211214 -0.5598599162649182
-0.8043315618541896 0.3388229843908269 -0.4881083116007067
-0.8575719892490762 0.3006027012395776 -0.4173826772433794
-0.8900807617316014 0.278526951478053 -0.3608032357056039
-0.9185550519614337 0.2447160744343569 -0.310436240522213
-0.9435046331662534 0.1956036816305724 -0.2674662725024944
-0.9627627126133755 0.134472175671063 -0.2345318596089343
-0.9734012297864278 0.08122327013844637 -0.2142261100759806
-0.9788847048703103 0.03107887961776624 -0.2020367239208486
-0.9802633619374038 -0.01898447775447987 -0.1967824454761337
-0.9776657007632528 -0.06919652566615574 -0.1984480243963904
-0.9710906785637347 -0.1188735160093167 -0.207007200836607
-0.960337146241757 -0.1682482193210358 -0.2223625468543163
-0.9440529678258234 -0.2203413216069055 -0.2453847915657697
-0.9182389179846271 -0.2799850429578308 -0.2800815331619028
-0.886969885637845 -0.327699363483452 -0.3254190362350179
-0.8526647217158611 -0.3600091243999604 -0.3786242235911301
-0.8146193095076927 -0.3803190210894344 -0.4378959040397432
-0.7544103993422356 -0.4160094027260364 -0.5077412000299112
-0.7131793858943437 -0.3869065282997803 -0.5845327209783704
0 0 0
0 0 0
0 0 0
0 0 0
0 0 0
0 0 0
0 0 0
0 0 0
0 0 0
0 0 0
0 0 0
0 0 0
0 0 0
0 0 0
0 0 0
0 0 0
0 0 0
0 0 0
0 0 0
-0.7731437112091173 0.3934809478192445 -0.4974148625856101
-0.8228687073849631 0.391687912793569 -0.4116645107098944
-0.8613641829763244 0.3803580470871655 -0.3367187257958282
-0.8978843200020302 0.3477634667163758 -0.2699339161941294
-0.9259674366848891 0.3104679889717643 -0.2149277413993916
-0.9490707705461774 0.2661639952485786 -0.1685864767061669
-0.968132217169474 0.2136899019512175 -0.1306010562078143
-0.9825877822186432 0.1552623487970566 -0.102053188488497
-0.9917573427206948 0.09730953195190743 -0.08335603248047689
-0.9965494279807142 0.0405612140694353 -0.07241564405930621
-0.9975638650351136 -0.01562179431539968 -0.06798746000971037
-0.9950038857146766 -0.07151879307968828 -0.06965866528378864
-0.9888602078566221 -0.1271455989928638 -0.07739176942352043
-0.9788821572679257 -0.1827984292459463 -0.09151205629700349
-0.9643648685694723 -0.2391559834310082 -0.1131583662754588
-0.9443406361281934 -0.2955879142459218 -0.1443902625135912
-0.9198466370379151 -0.3458512344068528 -0.1851191183786632
-0.891511258871459 -0.3877835943564521 -0.2341613957368216
-0.8581583484712551 -0.4226241049158962 -0.2914671763563178
-0.8158467163340958 -0.4527923327177898 -0.3596849161124985
-0.7718812390108059 -0.4619233235414221 -0.4368365781749382
-0.716549326233352 -0.460448582267283 -0.5239696233204536
0 0 0
0 0 0
0 0 0
0 0 0
0 0 0
0 0 0
0 0 0
0 0 0
0 0 0
0 0 0
0 0 0
0 0 0
0 0 0
0 0 0
0 0 0
0 0 0
-0.6720368300704557 0.4859606789371953 -0.5587564026977704
-0.7223173666518539 0.5198453848685946 -0.456090339367053
-0.8002624177010116 0.4833294769155806 -0.3549263015892768
-0.8483377223454354 0.4549023423925269 -0.2709002911248904
-0.8837191951235579 0.4232688177377123 -0.1997095193051393
-0.9131894250722388 0.3830797652141447 -0.1390502334399657
-0.9372123738959484 0.3372168882734845 -0.08898166372612203
-0.9570090567699548 0.2860793494631449 -0.04787766776926628
-0.9731259168941423 0.2297842698994632 -0.0150046384729755
-0.9854536126407742 0.169673915025965 0.009588529241116786
-0.9937678896103384 0.1083593002745397 0.02614657957411363
-0.9982494051227186 0.04706128353608263 0.0358240249563606
-0.9991189941164502 -0.01394281710117476 0.03958324704992054
-0.9964929417460269 -0.07460810906078259 0.03788729487206709
-0.9903814777007067 -0.1348999615874322 0.03076571128826629
-0.9806825769728739 -0.1947930710301389 0.01781411520367983
-0.9671870263910884 -0.2540584943077596 -0.001880811217877721
-0.9497651117594906 -0.311573853743594 -0.02946126521123885
-0.9287696973673487 -0.3648756076191936 -0.06521227044572955
-0.9042952514427187 -0.4127567437215413 -0.1090044436274942
-0.8756082115923056 -0.4552562294151865 -0.1614063981717906
-0.8412092928206568 -0.4921665963456617 -0.2239173220492254
-0.8005319272765543 -0.5207552615484553 -0.2965848798918863
-0.7461110412699585 -0.5461822280939136 -0.3807929723739997
-0.6596824336693832 -0.5795187682049936 -0.478515500277897
-0.6035085093463465 -0.5434436435977336 -0.5834779219300159
0 0 0
0 0 0
0 0 0
0 0 0
0 0 0
0 0 0
0 0 0
0 0 0
0 0 0
0 0 0
0 0 0
0 0 0
0 0 0
-0.6517339636625739 0.5339427616471072 -0.5386538479332813
-0.7135859763140842 0.5556226579201589 -0.4267065928874461
-0.7637696722437912 0.5589914516416322 -0.3227761527005856
-0.8141359662163918 0.5342071189432414 -0.227607958084209
-0.8535275105753501 0.4995557794183909 -0.1481040578131766
-0.8847694289799157 0.4587025543152959 -0.08231053521376373
-0.9107876498970857 0.4119373839256719 -0.02781094244028218
-0.9326847164675168 0.3603018013070277 0.01678784211321346
-0.9510906390822721 0.3043487587561766 0.05290018235931703
-0.9662271224056732 0.2444930845877779 0.08141424639708522
-0.9779879109005495 0.1816165919037699 0.102737820093858
-0.9861700256190515 0.1170800892106231 0.1173070043985066
-0.9906886311528361 0.05191713559452359 0.1258596326713959
-0.9915458733924071 -0.01329129030668027 0.1290740971708558
-0.9887722418397745 -0.07820779780145276 0.127330256145948
-0.9824041689652206 -0.142564513065604 0.1206540857746662
-0.9724842532552342 -0.2060464696387951 0.108716279921627
-0.9590870462058094 -0.2681271128764436 0.09088393224744359
-0.9423816929188912 -0.3278730966079353 0.06645282064779219
-0.9226409396203773 -0.384067349698153 0.03501381773333818
-0.8999441479231232 -0.4359887754616728 -0.003783951684945656
-0.8739267965568813 -0.4834007707767528 -0.05075085292157821
-0.8437280626702273 -0.5259495371317587 -0.10723824249601
-0.807960463776367 -0.5627796900644131 -0.1745820993838733
-0.763221347202799 -0.59372073471862 -0.2549291359164855
-0.7063681856167875 -0.6152491709266307 -0.3500177767236122
-0.6498304735923143 -0.6092151087767154 -0.4545077632218865
-0.5817724500779291 -0.5842795177445576 -0.5658252923602036
0 0 0
0 0 0
0 0 0
0 0 0
0 0 0
0 0 0
0 0 0
0 0 0
0 0 0
0 0 0
0 0 0
-0.6102395400817209 0.5812113459337094 -0.5383317518768284
-0.6774807133667528 0.6067253432524257 -0.4158175571946204
-0.7297014970091961 0.6126420395372295 -0.3036535141476243
-0.77271668186362 0.6011415366113565 -0.2038082003507553
-0.8112980554029838 0.5728881182999824 -0.1165961800834039
-0.8443035625642998 0.5340746957746065 -0.04376886535532216
-0.8725093268452706 0.4883331574925717 0.01606866084486338
-0.8970027182010882 0.4372122496839291 0.06505053624818072
-0.9183534295883615 0.3816067506169819 0.1048964548821468
-0.9367641042250054 0.3220433074894247 0.1369712420064672
-0.9521723260897227 0.258965516160979 0.1621873079755743
-0.9643360651642737 0.1930326455015073 0.1810921069350465
-0.972958335907636 0.1251545886732855 0.194135018793271
-0.9778068767293842 0.05621643621433197 0.201825231624012
-0.9787534623153318 -0.01306579618908081 0.2046239110556118
-0.975769157134311 -0.08211769358179077 0.2028083735603702
-0.9689155599163974 -0.1504216424678833 0.1964076557294997
-0.9583441351897596 -0.2174317520028362 0.1852024615613094
-0.9443021637779397 -0.2824965688456784 0.1687871798292731
-0.9271267215450957 -0.3448398102489453 0.1467022408298976
-0.9071794455408109 -0.403700130215713 0.1185396914627432
-0.8846893888869537 -0.4585889291782343 0.08379068698839914
-0.8596161009618503 -0.5092460983860054 0.04157607780654795
-0.8315696307079543 -0.5553401775866966 -0.009446504232355829
-0.7997120891277303 -0.5961739643520885 -0.07097308455798712
-0.7626002250033506 -0.6303917422596713 -0.1450763527100636
-0.7191681104368007 -0.6545607055898292 -0.2331255276208637
-0.6706173945439091 -0.6626036677381159 -0.3335096544856456
-0.6119678208756861 -0.6536122083419936 -0.4452936865923048
-0.5379875448660283 -0.6247226095985793 -0.5659426319207307
0 0 0
0 0 0
0 0 0
0 0 0
0 0 0
0 0 0
0 0 0
0 0 0
0 0 0
-0.5680146484001241 0.6067117184865954 -0.5561117242550503
-0.6319534108472669 0.6481666672663513 -0.424870401373567
-0.6837308295881778 0.6639964254910143 -0.3026894441598802
-0.7263364007572417 0.6592224059464968 -0.1945796814498549
-0.7627422459187496 0.6387188427446311 -0.1013040286157484
-0.7953704105627095 0.6057234175760539 -0.02202388252084193
-0.8248351070580752 0.5636624574613325 0.0439508840996892
-0.851548332827529 0.514994257753532 0.09821584057342292
-0.8758133839206736 0.4610879329664344 0.1426493414571515
-0.8976917015944806 0.402690501801831 0.1788573975182314
-0.9170257364659855 0.3402556812286722 0.2080621783280859
-0.9334960721599456 0.2741940447686752 0.2310902617492709
-0.9466863522401185 0.2050644513625318 0.2484623135803121
-0.9561671141999064 0.1336216500884227 0.2605565281282921
-0.9615823000347228 0.06071371123148003 0.2677187433267084
-0.9627053060815084 -0.01282102921273927 0.2702482467148207
-0.9594624095860584 -0.08618822031291158 0.2683346330062655
-0.9519380562884342 -0.1586248740620901 0.2620154314512472
-0.9403714548992976 -0.2293744401345154 0.2511750246811079
-0.9251418857274766 -0.2976784328273231 0.2355844687199831
-0.9067303693785581 -0.36281266703688 0.214958149145849
-0.8856423445871081 -0.4241826652927008 0.1889621759491305
-0.8623015520952804 -0.4814096046363104 0.1571013234125715
-0.836958305651188 -0.5342706869496827 0.1185564324185151
-0.8096245274628132 -0.582503305690383 0.07209731888490925
-0.7800147441100124 -0.6255538666730404 0.01610462236126444
-0.7475247405456595 -0.6622497257796233 -0.05130363512420437
-0.7114052171676737 -0.6903293327882407 -0.1317119177552157
-0.6707179981899514 -0.706522234393231 -0.225751410210567
-0.6226498120616378 -0.7076379099286947 -0.3339997005557869
-0.5642126666202399 -0.6886474077243318 -0.4554435361928362
-0.4934973675545778 -0.6437399971820982 -0.5848582428629124
0 0 0
0 0 0
0 0 0
0 0 0
0 0 0
0 0 0
0 0 0
0 0 0
-0.6003877346093427 0.6619378076949046 -0.4487459268614304
-0.6351272363208876 0.7034088743034583 -0.3191071124787606
-0.6734648337343441 0.7111818525228966 -0.2016568629262901
-0.7085269797932049 0.6985291998466376 -0.1002321099585105
-0.7403311958189189 0.6720889223483929 -0.01435969894895562
-0.7699239018711913 0.6355222051350953 0.05769499205013608
-0.7978672522102536 0.5912383312215076 0.1176651330890584
-0.8243378039882602 0.5408024644072138 0.1673316449656081
-0.8492607829098408 0.4851188234697056 0.2083647036489925
-0.8723608329032799 0.4246870660879253 0.2421311072826561
-0.8932044636702374 0.3598368151741547 0.2696354066603351
-0.9112467039656529 0.2909197137328537 0.2915393021074988
-0.9258869534022327 0.2184484333979745 0.3082428125123144
-0.9365408207003947 0.1431484049036097 0.3199997270864188
-0.9427200081763961 0.06591763018662816 0.3270074192040202
-0.9441000341866969 -0.01224774239860708 0.3294315076837893
-0.9405631160336109 -0.09031639536604504 0.3273896355800344
-0.9322154701984972 -0.1672642432610862 0.3209314413529631
-0.9193803643970875 -0.2421100329587909 0.3100362519154353
-0.9025663219358245 -0.3139577158523495 0.2946261820748664
-0.8824072777748629 -0.382055331630018 0.2745744338117303
-0.8595786860225196 -0.4458568015117789 0.2496721752248019
-0.8347059936638196 -0.5050445292518165 0.2195357092012723
-0.8082893629303873 -0.5594628868932432 0.1834927354492982
-0.7806469248910755 -0.608972842697255 0.1405078485897891
-0.7518651605597122 -0.6532587014323326 0.08917314247832679
-0.7217503838474693 -0.691595665497219 0.0277816284887824
-0.6897780386888099 -0.7225921655659873 -0.04546228772592536
-0.6549631295831918 -0.7439964840624571 -0.1322593308212777
-0.6157953763834111 -0.7522738131237681 -0.2342651585555108
-0.5720720126902705 -0.7408148431565293 -0.3520326411790093
-0.5317287613899855 -0.695870621882541 -0.4827303614974687
0 0 0
0 0 0
0 0 0
0 0 0
0 0 0
0 0 0
0 0 0
-0.4816665158036197 0.7219313042527777 -0.4968023344283759
-0.5650956923175006 0.7467843208145543 -0.3506850962184576
-0.6115531335213669 0.7589261304911989 -0.2236825727182433
-0.6476939820341037 0.7534010781563042 -0.1134870964899721
-0.6794132378623949 0.7334881657475859 -0.01981824728824205
-0.7088912450897482 0.702855059734638 0.05888945271034775
-0.7372380267730935 0.6640040510673766 0.1248147108550427
-0.7649188457359821 0.618457283439719 0.1800270757366659
-0.7919601263411903 0.5670785217554007 0.2263208086972006
-0.818092015917423 0.5103069348189254 0.2651646389846868
-0.8428344572431844 0.4483563646829051 0.2976686881953083
-0.8655526177903121 0.3813913361764212 0.3245909957560454
-0.8855054078397878 0.3096772698522876 0.3463815255225426
-0.9019032278135638 0.2336946840060185 0.3632593595859594
-0.9139840537633565 0.154194469185383 0.3753094924711327
-0.9211033808954059 0.07218541734750092 0.3825674152687595
-0.9228209379412144 -0.01112868557205117 0.3850683950348756
-0.9189656037959671 -0.09443527068059168 0.382863159224541
-0.9096654744336059 -0.1764073944697541 0.3760174940077586
-0.8953376421378575 -0.255797816233361 0.3646066151090304
-0.8766375882103143 -0.3315288433913394 0.3487049826664421
-0.8543763568680441 -0.402767190932053 0.3283589967300895
-0.8294202040960613 -0.4689688153044297 0.3035298590076555
-0.8025948525184115 -0.5298699054204882 0.2740061788365942
-0.7746092785686466 -0.5854146850086833 0.2393117467479278
-0.7459999750278791 -0.6356315330072216 0.1986368332039466
-0.7170798855269545 -0.6804806299958949 0.1508063326688875
-0.687874896059646 -0.719679024880238 0.09428800834867727
-0.6580241387312894 -0.7525037822684176 0.02724500905982749
-0.6266240845328369 -0.7775587160879092 -0.05238988183901052
-0.5920291688470898 -0.7924477871283944 -0.1467241217712148
-0.5515201067999389 -0.7935384900808041 -0.2571424440959928
-0.4988425955216843 -0.7773024597566036 -0.3833496458189598
-0.4071452121096421 -0.7476686295387274 -0.524618334277287
0 0 0
0 0 0
0 0 0
0 0 0
0 0 0
-0.4069223358299249 0.7225050740889642 -0.5589281085420713
-0.4802253906250563 0.7763851875770407 -0.408178410391798
-0.5376399904368744 0.8000818518651232 -0.2661057515333189
-0.5790071157698703 0.8026269160448574 -0.1433205970130495
-0.6123536059870222 0.7895963546555289 -0.03950516357882992
-0.6421317087524302 0.7651226680262639 0.04747811587515678
-0.6705260837293793 0.7320709325856805 0.1202785130506396
-0.6985695737749563 0.6921416118971813 0.1814952883031593
-0.7266316617639967 0.6461883898558478 0.2333387943261882
-0.754648499100615 0.594536138428566 0.2775471543857683
-0.7822503988571177 0.5372181195225736 0.3154060962386581
-0.808837059171849 0.4741573023200555 0.3477893965703984
-0.8336276008319949 0.4053191763288627 0.3752084599675009
-0.855707670867993 0.330847826776346 0.3978744745959996
-0.8740922109207554 0.2511780118387638 0.4157792842078486
-0.8878145373922606 0.1671044149560716 0.4287906968407251
-0.896038887763793 0.07978851418841144 0.436747186159945
-0.8981783926585364 -0.009300456195499428 0.4395327934021337
-0.8939910760222095 -0.09850169741208507 0.4371239773789461
-0.8836283118588791 -0.1861151653523092 0.4296069735319824
-0.8676203164101662 -0.2705644857157657 0.4171688454591087
-0.8468014533845418 -0.3505390518694089 0.4000620847572572
-0.8221935669251407 -0.4250908657111347 0.378543913431284
-0.7948771171471256 -0.4936675108384305 0.3527927966646457
-0.7658765885654429 -0.5560791854452517 0.3228141734836065
-0.7360765830607328 -0.6124085584410905 0.2883522523195212
-0.7061644388871895 -0.6628873554978166 0.2488215006229394
-0.6765847334376134 -0.7077563465093417 0.2032585851935935
-0.6474818773405701 -0.7471147370958231 0.150289015333024
-0.618608956377567 -0.7807434788053523 0.08810550148755339
-0.5891764441597667 -0.8078747942992082 0.0144718479561128
-0.5576036656206939 -0.8268770008438351 -0.07316131192009517
-0.5210472920702169 -0.8349189230415227 -0.1772571899062984
-0.4743936977592166 -0.8278035041749663 -0.299486190002115
-0.409336073921456 -0.7997281670913362 -0.4391797323958599
-0.3279326061640383 -0.7414410768366722 -0.5854274809006982
0 0 0
0 0 0
0 0 0
0 0 0
-0.432481796551503 0.7631350752091638 -0.4801919955987267
-0.4684218304784883 0.8194791513322597 -0.3302043447063366
-0.5071410518379798 0.8399034260079842 -0.1933137049479877
-0.5408311097256628 0.8376777514602428 -0.07614259951839669
-0.5706905496438361 0.8208757459885976 0.02180151817830847
-0.5987707040941397 0.7942250782576216 0.1033449030445261
-0.6264614109503093 0.7603120908187704 0.1716730181040015
-0.6544876052226782 0.7203614238112251 0.2296201073393786
-0.6830846737072612 0.6747647455662367 0.2794420632030465
-0.7121248797489639 0.6234396033055521 0.3228021323856751
-0.7411905856347588 0.5660720878598827 0.3608308566521936
-0.7696156491705567 0.502294816505413 0.3941975010874317
-0.7965143001170411 0.4318395934461289 0.423177900227956
-0.820817850204423 0.3546820017849256 0.4477261823878817
-0.8413385560877341 0.2711751792469084 0.4675611790991775
-0.8568744970710069 0.1821495704684724 0.4822733978227072
-0.8663548158060219 0.08894815427344711 0.4914443600053419
-0.8690037463287379 -0.006630141089945011 0.4947610838533534
-0.8644834572778045 -0.1024844898434188 0.4921029175228976
-0.8529701490555081 -0.1964420940030821 0.4835829076010732
-0.8351350644138935 -0.2865104931610438 0.4695329184359884
-0.8120339489494851 -0.3710903349237383 0.4504362652803303
-0.7849414280057126 -0.4490990775925264 0.4268219454361428
-0.7551773971494896 -0.519992003461861 0.399143351654817
-0.7239653135419449 -0.5836936221230928 0.3676628622541808
-0.6923373854440461 -0.6404741522130265 0.3323579471947475
-0.6610823124473271 -0.6908025847027924 0.2928514386804943
-0.6307141042028337 -0.735199416579456 0.2483576788038653
-0.6014400938930957 -0.7740874863658677 0.1976319228000286
-0.5731038238108932 -0.8076225139819465 0.1389168169906466
-0.5450859372142768 -0.8354609025661655 0.06990279918973946
-0.5161484133252764 -0.856411821467883 -0.01223141332233751
-0.4842553269692636 -0.8679137608802109 -0.1105553344559145
-0.4466701738534855 -0.865253723982136 -0.2276439081652344
-0.4018783757697031 -0.8403601961041022 -0.3637148771944581
-0.3590926288723171 -0.7798179864444936 -0.5127732363406101
0 0 0
0 0 0
0 0 0
-0.3168064298295397 0.7580546026134758 -0.5700762277758875
-0.3944436366000164 0.8224005686762959 -0.4099652694883536
-0.436045578905675 0.8609855746471481 -0.2618550999433359
-0.4685279536286731 0.8736839964510241 -0.1309879040747428
-0.4970961906352507 0.867465621786546 -0.01996928327213712
-0.5239031335477772 0.8486823220937628 0.07255220757742549
-0.5503338204550802 0.8214155427147101 0.1496970014730193
-0.5772535159296037 0.787807359152213 0.2147974469413595
-0.6051103765279979 0.7486969640038704 0.2707291789030711
-0.6340205802378114 0.7041293346910326 0.3197182882827825
-0.6638186108754 0.6537003405441594 0.3633465516939766
-0.6940766210544792 0.5967883307692095 0.4026180974115509
-0.7241051885724331 0.5327297068578017 0.4380305187012441
-0.7529516652907946 0.4609803079575204 0.4696391651163776
-0.7794155872031285 0.3812857220766712 0.4971242707465339
-0.802104894474494 0.2938578148413704 0.5198801043670694
-0.8195536359406804 0.1995302817351892 0.5371401162518825
-0.8304067156980732 0.09984202795150168 0.5481389020841985
-0.8336474844065125 -0.003006301117580919 0.5522887233108087
-0.8288090861374887 -0.1063555106928052 0.5493305053255397
-0.8160940669594393 -0.2074247209128076 0.5394121420841819
-0.7963491881721204 -0.3036937116439729 0.5230660570191028
-0.7709030603223023 -0.393212540606571 0.5010911788242073
-0.7413283958275571 -0.4747600974224674 0.4743786034752724
-0.7092083428322166 -0.5478385580923076 0.4437301440340985
-0.6759604255176436 -0.6125492610806648 0.4097083180550979
-0.6427363434499471 -0.6694100413466104 0.372532131973767
-0.6103825069189238 -0.7191671080553836 0.3320118460817705
-0.5794359346742077 -0.762624211717453 0.2875035813873629
-0.5501256047699007 -0.8004890426043237 0.2378636408679628
-0.5223590028528833 -0.8332091067681269 0.1813936507631972
-0.4956758091784261 -0.8607543871123783 0.1157902295623678
-0.4691637484204956 -0.8822863435680015 0.03815999372950153
-0.4413505974521688 -0.8956623551242284 -0.054759435186399
-0.4101405550611613 -0.8968077303600015 -0.165893399087078
-0.3727654417927206 -0.8793720226206548 -0.2962275666394598
-0.3239632027286723 -0.8362483044834214 -0.4424213111123642
-0.2377004593575393 -0.7668728371288811 -0.5961581529217855
0 0 0
0 0 0
-0.3437744012119702 0.7884696826185635 -0.5100340387295073
-0.3715746775799809 0.8597147497902793 -0.3504608508440993
-0.3991515162710192 0.893728639404741 -0.2047612906930798
-0.4244489002000388 0.9019988092230024 -0.07900176757049561
-0.4485588057710354 0.8933585743077683 0.02656041182010448
-0.4725573752508203 0.8738370630129453 0.1144478676121335
-0.4972244175293369 0.846976712121784 0.1881444331782997
-0.523055447486492 0.8144887128154713 0.2510401074547684
-0.550305643189445 0.7768807161698498 0.3059739399316091
-0.5790178899794118 0.7339172042700742 0.3551109972391552
-0.6090243544987876 0.6849238047846684 0.3999608946717513
-0.6399244323382567 0.6289935788620373 0.4414337987137881
-0.6710487679511898 0.5651524756037217 0.4798918944410026
-0.7014224813342056 0.4925304830272356 0.5151895049085562
-0.7297494655289022 0.4105655615009856 0.5467189746749801
-0.754448014606652 0.3192435951664236 0.5734908196312275
-0.7737718862664333 0.2193392778810698 0.5942788480185847
-0.7860361633917622 0.1125833968385778 0.6078421905368577
-0.7899259324110011 0.00165435985801504 0.6132000362019476
-0.7848054111175693 -0.1100809572706652 0.609887407253959
-0.7709032547765771 -0.219058412808918 0.5980983059268073
-0.7492807440912128 -0.3220895212190956 0.5786507641531046
-0.7215929495065521 -0.4168108317335259 0.5527859855061814
-0.6897517385903053 -0.501877608060617 0.5218825592401076
-0.655614495174085 -0.5769070572970962 0.487183621397963
-0.6207747352259011 -0.6422614464182574 0.4495986683142415
-0.5864646277901331 -0.6987800255676325 0.4095921339804746
-0.5535425449692361 -0.7475306381381139 0.3671356642357221
-0.5225232756843834 -0.7896112815130141 0.3216884369625941
-0.4936183164076071 -0.8259910057106804 0.2721760757156619
-0.4667602292527404 -0.8573600864742977 0.2169529223327339
-0.4415991808051989 -0.883939264309899 0.153758058401668
-0.4174637522005157 -0.9051906942967017 0.07971086850186043
-0.3932986025323376 -0.9193710895304222 -0.008544529346540179
-0.3676252848690232 -0.9229167022672806 -0.1143521342216949
-0.3386605687469944 -0.9097952931588607 -0.2399615463401256
-0.3050284485328522 -0.8711643378740935 -0.384747114351794
-0.2701032927032558 -0.795352340043717 -0.5426406420992091
0 0 0
0 0 0
-0.3241864158858892 0.8291800670025344 -0.4553719185904345
-0.336938834677815 0.8933023630738838 -0.2974611063863152
-0.3553159629157996 0.9215981797424098 -0.156228555625066
-0.3750553759425895 0.9263101660685791 -0.03581816877735778
-0.3954913136754172 0.9161805975820957 0.06480535025294047
-0.4168783146714559 0.8966975713808263 0.1488151075543535
-0.4395753470027323 0.8708756043975018 0.219884505986013
-0.4638541923288822 0.8400344002418523 0.281392065753872
-0.4898682082982886 0.8043982967917673 0.3361138477021255
-0.5176416975085191 0.7634980925231574 0.3861576565523442
-0.5470431918834098 0.7164253697822398 0.432987800920986
-0.5777381406159303 0.6620027791629735 0.477463047007982
-0.6091242574333092 0.5989307564104701 0.5198553529895611
-0.6402609037030956 0.5259608421839689 0.5598492365614378
-0.6698142645652002 0.4421349436642533 0.5965446693886276
-0.6960575287918395 0.3471028261167695 0.6285089853883942
-0.7169780903262598 0.2414841323154007 0.6539325896695983
-0.7305364887192745 0.1271684536879224 0.6709281802371514
-0.7350694080797069 0.007385718224168308 0.6779516328409142
-0.72972989556643 -0.1136113134410111 0.6742304865361807
-0.7147698695519897 -0.2312553529516134 0.6600189355706815
-0.6915002280333382 -0.341523553897838 0.63654465417819
-0.6619456263167252 -0.441581214363611 0.6056682416317669
-0.6283754896180164 -0.5300050079084252 0.5694198237147243
-0.5929049667716687 -0.606626336001321 0.529592474311237
-0.5572587462543749 -0.6721749403663596 0.4874869631759219
-0.5226940491285139 -0.7278920238511494 0.4438064134501845
-0.4900267483834511 -0.7752124691811878 0.3986469785345763
-0.4597041929843412 -0.8155381577635162 0.3515246338228728
-0.4318803426066752 -0.8500830688586177 0.3013936723122342
-0.4064712476765528 -0.8797446671959038 0.2466382884968069
-0.3831770522388161 -0.904950285956831 0.1850414185641162
-0.3614710343269916 -0.9254163357630397 0.1137686109851185
-0.3405685631491538 -0.9397584134016765 0.02944789016693136
-0.3194442775762301 -0.9449036558620406 -0.07150129133344445
-0.2971136254557704 -0.9353268190220437 -0.1920604987670091
-0.2738358164564177 -0.9022719569145676 -0.3330454344247986
-0.2549902641792001 -0.8333279837109555 -0.4904532972037752
0 0 0
0 0 0
-0.2745683637975109 0.870264785331767 -0.4089638333801785
-0.2872461749625972 0.9239124259816089 -0.252735957248141
-0.303312817587835 0.9457719076955342 -0.1162619168123337
-0.3202709122300245 0.9473256237308424 -0.0008398823237874775
-0.3380672272197655 0.9362561696761854 0.09557685192146016
-0.3570410153276989 0.9172602999146634 0.1765085141692229
-0.3775008898799445 0.8928207159389943 0.2456913660062784
-0.3996676010392658 0.8639129937794161 0.3064639421834227
-0.423679975583755 0.8305275116986489 0.3615512835006932
-0.4495900459899941 0.7920048737686484 0.4130339822259442
-0.4773335080522956 0.7472365872339153 0.4623745286988674
-0.5066733779070468 0.6947942859487829 0.5104341175246646
-0.5371194619829525 0.6330469567019366 0.5574533470789816
-0.5678298833908768 0.5603254964193627 0.6029963197157155
-0.5975155473049321 0.4751882708963262 0.6458879763019639
-0.6243911167041645 0.3768235708807668 0.6842073733961023
-0.6462450842099838 0.2655651976919653 0.7154316297936916
-0.6607093797805432 0.1433901543383286 0.7368190952390141
-0.6657548882078974 0.01413507043569532 0.7460366134520928
-0.6602925858958624 -0.116863164743257 0.7418602979922465
-0.6445895019213268 -0.2437772901962942 0.7246219750996838
-0.6202217122142603 -0.3615679081757046 0.6961276287258363
-0.5895881306125264 -0.4668936742134531 0.659087348702953
-0.5552845558055328 -0.5583352780120349 0.6163771405649916
-0.5196175643960003 -0.6360692948657524 0.5704502072049341
-0.4843630549231497 -0.7013098430882087 0.523026705831648
-0.4507281667909014 -0.7557770447269041 0.4750212398674185
-0.4194288139752169 -0.8013053369993464 0.4266019537035739
-0.3908034171998647 -0.839600761743719 0.3772840441686802
-0.3649179238764782 -0.872100073113679 0.3260005694915209
-0.3416378130672925 -0.8998743426709644 0.2711268560749689
-0.3206614395964118 -0.9235152104268822 0.2104659052344283
-0.3015113780126707 -0.9429454973407966 0.1412256278924527
-0.2834941932182598 -0.9570913095900231 0.06006053212203408
-0.2656642253673913 -0.9633670985143523 -0.03669268128634454
-0.2469317485508965 -0.9569774200211548 -0.1523775873521112
-0.2267936355094387 -0.9301470483107001 -0.2887751987468858
-0.2084876937465505 -0.8712086116162118 -0.4444417133910774
0 0 0
-0.1077609782766296 0.8330557279379497 -0.5425916749367207
-0.193214978843405 0.9074786696260154 -0.3730287336443925
-0.2259043539873845 0.9492268320114042 -0.2189421024817636
-0.2452439588838362 0.9656419556277229 -0.08597100768543632
-0.2612471402640483 0.9649261138553519 0.02583653428509022
-0.2769501764993098 0.9534590275614376 0.1192245046062183
-0.2934672353393293 0.9352377535069949 0.198008399310431
-0.3112942015454089 0.912324331143713 0.266007960195522
-0.330698731175039 0.8854340107779131 0.326565401959481