# OOMMF: rectangular mesh v1.0
# Segment count: 1
# Begin: Segment
# Begin: Header
# Title: 
# Desc: time = 8.2e-10
# Desc: stepsize = 9.81146813215434e-14
# Desc: step = 5246
# meshunit: m
# valueunit: (none)
# valuemultiplier: 384000.0000000001
# xmin: 0
# ymin: 0
# zmin: 0
# xmax: 9.357999999999999e-08
# ymax: 9.357999999999999e-08
# zmax: 2.3395e-08
# ValueRangeMaxMag: 1
# ValueRangeMinMag: 0
# meshtype: rectangular
# xbase: 1.16975e-09
# ybase: 1.16975e-09
# zbase: 1.16975e-09
# xstepsize: 2.3395e-09
# ystepsize: 2.3395e-09
# zstepsize: 2.3395e-09
# xnodes: 40
# ynodes: 40
# znodes: 10
# End: Header
# Begin: Data Text
0 0 0
0 0 0
0 0 0
0 0 0
0 0 0
0 0 0
0 0 0
0 0 0
0 0 0
0 0 0
0 0 0
0 0 0
0 0 0
0 0 0
0 0 0
0 0 0
-0.8367489861216939 0.02104974413318812 -0.5471819098766368
-0.8462901559924771 0.03960825397976151 -0.5312477370181474
-0.8564158048165001 0.02043853907847899 -0.5158819975351371
-0.8615099328320632 -0.0143904461122738 -0.5075367481201561
-0.859820350574074 -0.05369009056532604 -0.5077660277271044
-0.8514511531437892 -0.08881645912944032 -0.5168583658970993
-0.8384313856080159 -0.1084741994001244 -0.5341031358192201
-0.8269522524873786 -0.08994553513408557 -0.5550313259767358
0 0 0
0 0 0
0 0 0
0 0 0
0 0 0
0 0 0
0 0 0
0 0 0
0 0 0
0 0 0
0 0 0
0 0 0
0 0 0
0 0 0
0 0 0
0 0 0
0 0 0
0 0 0
0 0 0
0 0 0
0 0 0
0 0 0
0 0 0
0 0 0
0 0 0
0 0 0
0 0 0
0 0 0
-0.7831068006262696 0.2322576417810784 -0.5768883138417519
-0.8108416643322202 0.261764541490474 -0.5234645357626787
-0.8475535462704578 0.2443557149872782 -0.4711085551732492
-0.8838372513592133 0.1960434899760461 -0.4247336378812042
-0.9154715618862034 0.1141306321910466 -0.3858575101942511
-0.9283470438148393 0.07336598965858553 -0.3644025216730316
-0.9362529034383091 0.0343484752095015 -0.3496436515284065
-0.9396755864220981 -0.008540139347749106 -0.3419603168530028
-0.9381095926174015 -0.05320622071409357 -0.3422272495236687
-0.9315940710981807 -0.09626415724031023 -0.3505220374320711
-0.9206629994866472 -0.1355784443212096 -0.3660575457652657
-0.9045628230279923 -0.1765738224455359 -0.3880564191230455
-0.8680129707116959 -0.2579633287839742 -0.4242739724269534
-0.8272607687657036 -0.3071546172237453 -0.4704207282628081
-0.7867638471432418 -0.3258618161947399 -0.5242296496523545
-0.7565185695772192 -0.2974946075608436 -0.582388712422431
0 0 0
0 0 0
0 0 0
0 0 0
0 0 0
0 0 0
0 0 0
0 0 0
0 0 0
0 0 0
0 0 0
0 0 0
0 0 0
0 0 0
0 0 0
0 0 0
0 0 0
0 0 0
0 0 0
0 0 0
0 0 0
0 0 0
-0.7568156076231979 0.3266779291972299 -0.5661374979926153
-0.794427931469885 0.3548842285512624 -0.4928909068202152
-0.8494277392080638 0.3174157817632736 -0.4215681882584204
-0.8832443748841036 0.2959591132946244 -0.3637135926707275
-0.913095918695317 0.2624993687282368 -0.3120094945337907
-0.9395353083617306 0.2134858255325659 -0.2677633407289093
-0.960339622609006 0.1522327505784303 -0.2336086447426905
-0.9722961531085423 0.0986623571931559 -0.2119101930616353
-0.9789779006342173 0.04796430121605406 -0.198246553257996
-0.9814865909857861 -0.002882655562065667 -0.191509169524621
-0.979957741023586 -0.05408870626419258 -0.1917217714883091
-0.9743886616154419 -0.1049458430730901 -0.1988796272546418
-0.9645931182072871 -0.1556637649071387 -0.2129058679371641
-0.9492774107858472 -0.209240646017046 -0.2347141866741042
-0.9245555771335695 -0.2704758066604335 -0.268402352453549
-0.8943028002820161 -0.3199055595092808 -0.3128624848120938
-0.8609160581795487 -0.3540659808951164 -0.3653229009265174
-0.8237410400111026 -0.3763642593934038 -0.4240290594436673
-0.7646747724724559 -0.4141038389192492 -0.4937514586677572
-0.7241204000190721 -0.3873682266564052 -0.5706097644216146
0 0 0
0 0 0
0 0 0
0 0 0
0 0 0
0 0 0
0 0 0
0 0 0
0 0 0
0 0 0
0 0 0
0 0 0
0 0 0
0 0 0
0 0 0
0 0 0
0 0 0
0 0 0
0 0 0
-0.7609717630855916 0.4075631914586366 -0.5047912645385777
-0.8120389622196785 0.4069894754552145 -0.4182729858667374
-0.851731468140507 0.3967623590031913 -0.3422471864857888
-0.8896241969149651 0.3650777732290592 -0.2743847804771876
-0.9189893751544346 0.3284796843350713 -0.2180816941707698
-0.9433890322149872 0.2846119083215568 -0.1703326026867168
-0.9637935057840202 0.2323081039515321 -0.1309008137751299
-0.9796013417111298 0.1737912786930426 -0.1008850968577158
-0.9900278303032646 0.1154886330099622 -0.08066765690473449
-0.9959784904987812 0.05812666577322713 -0.06817724833003989
-0.9980628141885538 0.001079273536964963 -0.06220493632064731
-0.9964861662065805 -0.05590638205722446 -0.06236823714184992
-0.9912417002229598 -0.1128127414219337 -0.06865258270424697
-0.9820931777978495 -0.1699016708924115 -0.08140277852068308
-0.9683692117330177 -0.2278195295201891 -0.1017808023979611
-0.9491399375398685 -0.2859071700579922 -0.1318729277609484
-0.9254053150327157 -0.3379086603433059 -0.171588869610449
-0.8977990798454013 -0.3816624842775967 -0.2197511327019802
-0.865193989600528 -0.4184183729094623 -0.2763429491970414
-0.823738494593485 -0.4506115716869161 -0.3440989741145788
-0.7805861719338507 -0.4619435584552328 -0.4210622008532385
-0.7261396350200662 -0.4628213427390566 -0.5084462952546129
0 0 0
0 0 0
0 0 0
0 0 0
0 0 0
0 0 0
0 0 0
0 0 0
0 0 0
0 0 0
0 0 0
0 0 0
0 0 0
0 0 0
0 0 0
0 0 0
-0.6565807460715217 0.4977012779393155 -0.5667408242095636
-0.7079687167822627 0.5330403263497128 -0.4633015287506265
-0.787918048194623 0.4978448977580385 -0.3624025484257294
-0.8373951790838 0.4707700694421639 -0.2777496278388687
-0.8739781800518741 0.4403635275693544 -0.2055288407496321
-0.904653797142806 0.4012089093185596 -0.1436416318429789
-0.929874107593447 0.3561424979899777 -0.09217735705013642
-0.9508931468612188 0.3055256325001242 -0.04956118579863254
-0.9682685380738345 0.2494551797953061 -0.01510468303705507
-0.9818636871412924 0.1892621570831965 0.01111466461577135
-0.9913983371827934 0.1275517321904696 0.02932392617646053
-0.9970207611116996 0.06555142387008811 0.04065233991851579
-0.998933566389933 0.003561735964551315 0.046033074809395
-0.9972412129260364 -0.05833507494295305 0.04590187657609372
-0.9919499123881951 -0.1200583562793198 0.04026614459517096
-0.9829656712731462 -0.1815338869384456 0.02870430266619108
-0.9701002740354022 -0.2424862581050812 0.01028945803396021
-0.9532496712127771 -0.3017530041490704 -0.01613036948562313
-0.9327797244922585 -0.3568432816808375 -0.05084149776900845
-0.908813726442155 -0.4065405246367679 -0.09371452640004486
-0.8806673851942818 -0.4508928530119622 -0.1453292529320887
-0.8468995035272948 -0.4897168092964534 -0.2072164993858399
-0.8069552636790112 -0.5203118793463807 -0.2794615369452014
-0.7534704740407888 -0.5478392009935809 -0.3635305415002478
-0.6683759253484534 -0.5833078374112953 -0.4615469523560478
-0.6129663555172891 -0.5499040062517816 -0.5673427807878516
0 0 0
0 0 0
0 0 0
0 0 0
0 0 0
0 0 0
0 0 0
0 0 0
0 0 0
0 0 0
0 0 0
0 0 0
0 0 0
-0.6354398794958989 0.5440668753362503 -0.5479118493955809
-0.698575315247413 0.5675150772645358 -0.435797161537802
-0.7499284601928139 0.5725742852903511 -0.3313095115101256
-0.8016740064465843 0.549382515272925 -0.2355793694283851
-0.8422647677528984 0.5162412452854809 -0.155193549054887
-0.8745962193709744 0.47675340408818 -0.08824763312593871
-0.9016975588146741 0.4311520681630584 -0.03239454500952537
-0.9247096220538923 0.3804259632563414 0.01371865013154019
-0.9442842741235747 0.3250817389763562 0.05146914247411661
-0.960642609307885 0.2654985293801406 0.0817086781138955
-0.9736503858525626 0.2025333383858646 0.104810175896389
-0.9830566408543189 0.1375368872091033 0.1211744425572172
-0.9887300603288438 0.07155349819003809 0.131502717458189
-0.9906350281136078 0.005197067382159699 0.1364376471688658
-0.9887750897129755 -0.06114391651539194 0.1363277060478001
-0.9831730096395769 -0.1271384462462252 0.1311741155958428
-0.9738731355156018 -0.1924040498599582 0.1206308315419246
-0.9609669180163041 -0.2563491852336958 0.1040561276824455
-0.9446511891925959 -0.3179847974518893 0.08074527445302693
-0.9252318257871252 -0.3760535954430749 0.05029673851213587
-0.9028316753056589 -0.429816125522764 0.0123719159945442
-0.8771402532877793 -0.4790411685752654 -0.03383097504202182
-0.8473545891931185 -0.5234025220535036 -0.08966604753970239
-0.8121365748263397 -0.5620901323338729 -0.1564891911993595
-0.768146934471831 -0.594993195264475 -0.2365023988260971
-0.7122648107518583 -0.6186673225150477 -0.3315563050473941
-0.6566478895993033 -0.6150835248316934 -0.4364467969471195
-0.5894906777502882 -0.592783121733327 -0.5487339167880888
0 0 0
0 0 0
0 0 0
0 0 0
0 0 0
0 0 0
0 0 0
0 0 0
0 0 0
0 0 0
0 0 0
-0.5930138902981728 0.5895794181723832 -0.5483891278836042
-0.6615889599372718 0.6170665135383074 -0.4260621620829475
-0.7149122270272584 0.6249638553438992 -0.3135612972938701
-0.7589161101876184 0.6153554748586358 -0.2130351549843275
-0.7984943629134915 0.5888935166671387 -0.1249447014594331
-0.832441586142745 0.551758807077992 -0.05102180388835179
-0.8615678554498145 0.5075415625943843 0.01011892755470929
-0.8870216107038671 0.4577350707874258 0.06059098213056759
-0.909411695666953 0.4031719728801794 0.1020917629785115
-0.9289565909883652 0.3443179978659245 0.135958701100281
-0.9455844466545202 0.2815638597783209 0.1630700681050887
-0.9590181258909432 0.2155303642808138 0.1839317707347
-0.9689061398101404 0.1471110529702941 0.1989452948229314
-0.9749556291858983 0.07720389166057366 0.2085691257861303
-0.9769829594107372 0.006567839282912754 0.2132162294671563
-0.97491690710047 -0.06415426304262284 0.2131226285102333
-0.9687951932466886 -0.1343597340055778 0.2082866664480969
-0.9587665616688471 -0.2034110393107124 0.1984707265876554
-0.9450960233579092 -0.270569235772615 0.1832642771695807
-0.9281551384064566 -0.3349837299092123 0.1622157197863472
-0.9083515553593325 -0.3958403504501803 0.1349365363115529
-0.885969088279563 -0.4526245803136728 0.1009443604613492
-0.8610270647571384 -0.5050797975433968 0.05938679877908263
-0.8331956538795077 -0.5529060206649301 0.008940619037358915
-0.8016917586175464 -0.5954638686110096 -0.0520874777995162
-0.7651199021326994 -0.6314795505460925 -0.1257979038082611
-0.7224254171947961 -0.6576182185151868 -0.2136347239281015
-0.6747337943014398 -0.6678854956214789 -0.3141071020623911
-0.617036929165658 -0.6613786637742397 -0.4264313440051226
-0.5440239659400047 -0.6351838693520105 -0.5482511984464018
0 0 0
0 0 0
0 0 0
0 0 0
0 0 0
0 0 0
0 0 0
0 0 0
0 0 0
-0.5501066948994988 0.6131017868187534 -0.5669998441149705
-0.6152678424384086 0.6567226892183973 -0.4360742958796602
-0.668053018394353 0.6747482262384366 -0.3137196133528745
-0.7114811410677914 0.6721214605305119 -0.205054451790748
-0.7485937301094957 0.6536816633892266 -0.1109401198369845
-0.7818949051019872 0.6226584372313987 -0.03060764479841717
-0.8120340561616864 0.5824602035376224 0.03661697596074873
-0.839471460618913 0.5355028888439654 0.09232725949640071
-0.8645619265475719 0.4830924477851894 0.1383992848871137
-0.8874019905352016 0.4258995235828359 0.1764293144748746
-0.9078446859295494 0.3642977870161732 0.2076177945278197
-0.9255530348943627 0.2986246415929893 0.2327550279398764
-0.940065122533049 0.2293836448771676 0.2523107386929621
-0.9508837282027931 0.1573041021106427 0.2665999904319585
-0.9575745907290173 0.08324749064490924 0.2758999066536271
-0.9598363142658128 0.008106855894580108 0.2804434501002363
-0.9575361922159631 -0.06723339652219627 0.2803642469870981
-0.9507245117085984 -0.1418964417792262 0.2756597588456483
-0.9396351931522076 -0.2150035567842074 0.2661938661200755
-0.9246701055329146 -0.2856807837470632 0.2517373347984201
-0.9063550135584173 -0.3531087392868443 0.2320232911515047
-0.8852545560326489 -0.4166271121853856 0.2067515910833661
-0.8618583564755165 -0.4758260739061314 0.1754699996136025
-0.8364830969072193 -0.5304867495734332 0.1374039195784465
-0.8092021998196882 -0.5803833735562479 0.09136158660206019
-0.7797832133252558 -0.6250282331983477 0.0357469987703844
-0.7476624970495055 -0.6633396918385479 -0.03132481025062583
-0.7121081518381683 -0.6931622396898197 -0.111481341729549
-0.6721648656381951 -0.7113271967189723 -0.2054458873025084
-0.6249933670941471 -0.7147197608657432 -0.3139410048342441
-0.5675308508983543 -0.6983390971669201 -0.4361550626172758
-0.4977067404091116 -0.6562973533646074 -0.5670641802458943
0 0 0
0 0 0
0 0 0
0 0 0
0 0 0
0 0 0
0 0 0
0 0 0
-0.5834605896866526 0.668498001600906 -0.4611769314895292
-0.6188084437543473 0.7123232697620149 -0.3311671319649247
-0.6577476595655086 0.7224247931120461 -0.2132379765264913
-0.6932832109819044 0.7120523118681434 -0.1110850779081125
-0.7254642104623921 0.6878324160163376 -0.02425380001783543
-0.755409746035053 0.6534206462177221 0.04896503539945996
-0.7837496846290278 0.6112037379787977 0.1103015073543601
-0.8107249987672841 0.5626968129402476 0.1615465043901421
-0.8363162440112071 0.5087278590030884 0.2043798069211351
-0.8602841772236643 0.4497009887366782 0.2401669318367044
-0.8822040079542535 0.3858418612738014 0.2698928425101703
-0.9015069805694919 0.317403229845908 0.2941774186912766
-0.9175353872971957 0.2448202359042803 0.3133558123749373
-0.9296199113785287 0.1687788779899499 0.3275980932683055
-0.9371721067542577 0.09018945329855471 0.3370078705838978
-0.939769375229603 0.0101165480234424 0.3416594457009058
-0.9372155830017689 -0.07029028021967992 0.3415936584383447
-0.9295718003840422 -0.1498558327358944 0.3368078047281585
-0.9171555830493965 -0.2274369407750352 0.3272584215145796
-0.9005067428997304 -0.3019879441090356 0.3128751949338846
-0.8803186258210032 -0.3726374082965199 0.2935651187908273
-0.8573416375373364 -0.4387613647417425 0.2691724008043198
-0.8322800707066578 -0.5000088234624306 0.2393763989290428
-0.80570745039625 -0.5562330518035028 0.2035688985511674
-0.7780045049202807 -0.6073397995979528 0.1607711359295154
-0.7493065757807945 -0.6530879355995863 0.1096166222154755
-0.7194543636631957 -0.692850155996747 0.04841569932644486
-0.6879408321727083 -0.7253482348114523 -0.02464446561463839
-0.6537801750249019 -0.7484500999027417 -0.1113280319595364
-0.6154419783545126 -0.7587390968424383 -0.2134154497729807
-0.5726479797032434 -0.7497111635833421 -0.3316737290475446
-0.5331037911562654 -0.7077027009869162 -0.4636348076564565
0 0 0
0 0 0
0 0 0
0 0 0
0 0 0
0 0 0
0 0 0
-0.462967370520298 0.7262952954715225 -0.5080908950271144
-0.5479592348830619 0.7535687238223552 -0.3631457770415564
-0.5950989508510589 0.7681871144148252 -0.2361054763087735
-0.6315767000225583 0.7651053144991832 -0.1253982843332417
-0.6634327908263804 0.7475964086657467 -0.03092801006203637
-0.6929429452867044 0.7193385838065407 0.04880652030811886
-0.7213100938470992 0.6828344913473434 0.1159689869779973
-0.7490871282684577 0.6395805610341168 0.1726417684391555
-0.7763799382603369 0.5903816662451237 0.2206437844773929
-0.8029844867759157 0.5355852149730536 0.2614658514978326
-0.8284644214572006 0.4752867594931582 0.2962249122374385
-0.8521975445717683 0.4095172789864542 0.3256607793968734
-0.8734168648166744 0.3384104220531602 0.3501733377908892
-0.8912653823079301 0.2623383830029856 0.3698980820481198
-0.9048768977863989 0.1819915668156418 0.3848075745881961
-0.9134802715995983 0.09838631663420848 0.3948087208984579
-0.9165085284979549 0.01281133752096803 0.3998099383725174
-0.913688551099222 -0.07326630207109307 0.3997565266146774
-0.9050911075821859 -0.1583189334939199 0.3946456667353627
-0.891129146257845 -0.2408861887555972 0.3845291780301808
-0.8725028785545668 -0.3196979441230817 0.3695023023439358
-0.8501021704906896 -0.3937745399425671 0.3496682876956924
-0.8248878090313934 -0.4624832900233687 0.3250681604841478
-0.7977786575323477 -0.5255300343631075 0.2955797634619042
-0.7695642411428215 -0.5828783879425404 0.2608134651887776
-0.7408430564415613 -0.6346150891035994 0.2200346663695412
-0.7119710765971119 -0.6807863627869971 0.1721252867314961
-0.6829999030399412 -0.721214913722215 0.1155862477636867
-0.6535805485016385 -0.755296051365752 0.04858334500217151
-0.6228102159981538 -0.7817590649607079 -0.03098708118057574
-0.5890347623369612 -0.798331489012948 -0.1253191222799148
-0.5495114187323158 -0.8014784766195523 -0.2359437479536143
-0.4979607024035318 -0.7876851486457497 -0.3627495630110449
-0.4076653726039313 -0.7607021734301866 -0.505114984254365
0 0 0
0 0 0
0 0 0
0 0 0
0 0 0
-0.3874915717776205 0.7243215199727763 -0.5702706528532181
-0.4620471689549453 0.7807264611419439 -0.4206882533818793
-0.5203974492050029 0.8070359190233783 -0.2790690241983458
-0.5621645677633548 0.8121618190631705 -0.1560902892797686
-0.5955331888775623 0.8016660644496035 -0.05168889682712614
-0.6250973335950339 0.779709613995889 0.03614196141274028
-0.653160621872197 0.7491860889442535 0.1100063914867565
-0.6808653024305871 0.7118027586863129 0.1725087611475397
-0.7086834144151215 0.6683865681421853 0.2258920398332714
-0.7366454058568952 0.6191959179818312 0.2719374214494334
-0.7644622334082893 0.5641569898829819 0.3119685632537078
-0.7915917073372728 0.5030492778338282 0.3468774898227391
-0.8172770580913793 0.4356697863074216 0.3771605064377035
-0.8405827956022415 0.3619886919134345 0.4029699128524617
-0.8604504493609181 0.2822903718140156 0.4241900165912658
-0.8757901596211818 0.1972768509093848 0.4405376719487002
-0.8856093014966444 0.1081065664832696 0.45167370455432
-0.8891595007666492 0.01635195123822032 0.4573051452663807
-0.8860677474329726 -0.0761243254624365 0.457262543875995
-0.8764137395325384 -0.1673561318722676 0.4515427801253648
-0.8607276002927996 -0.2554867238083859 0.440311857723427
-0.8399067590590601 -0.3389606316724111 0.4238659295852231
-0.8150766793431931 -0.4166536699260088 0.4025540039896031
-0.7874346057530014 -0.4879185167673853 0.3766726200006172
-0.7581129096249044 -0.5525451290709937 0.3463505400601821
-0.7280814661649362 -0.610654784848051 0.311445199624744
-0.6980862317699238 -0.6625574829396468 0.2714649053081209
-0.6686052436959977 -0.7085967787086009 0.2255163703725493
-0.639797039538744 -0.7489880413325853 0.1722691560849926
-0.6114154419194412 -0.7836365284612452 0.109931563455005
-0.5826645762575497 -0.8119038984137608 0.03624984572583734
-0.5519534645056616 -0.8322901908983821 -0.05138493120100148
-0.5164242246021834 -0.8420868547236484 -0.1555498291405867
-0.4709402510077987 -0.8371851591417593 -0.2780940295898103
-0.4071472983945116 -0.8117922604793616 -0.4185981405069281
-0.3268282412171095 -0.7565291268680419 -0.5664335626913437
0 0 0
0 0 0
0 0 0
0 0 0
-0.4141797420514791 0.7648638781475007 -0.4933947599836614
-0.4506758658336723 0.8238632402189215 -0.3437159079400439
-0.4897696461692637 0.8469654028163467 -0.2068219043606778
-0.5234485922186912 0.8473680519641822 -0.08926900814222646
-0.552950553839141 0.8331617656402414 0.009335806565163128
-0.5804309656094656 0.8091237241286283 0.09175343706849375
-0.6073941225664905 0.7778817701563605 0.161159335845273
-0.6346787886232408 0.7406742423527517 0.2204189238402913
-0.6626320626672123 0.6978678274577471 0.2718441555833031
-0.6912338533702964 0.6493095639413242 0.3171637591673712
-0.7201648719683919 0.5945653990523921 0.3575675368827807
-0.7488377795887259 0.5330992759608925 0.3937602593337709
-0.7764114609373897 0.4644348495827944 0.4260111663067941
-0.8018108983498937 0.3883219206390238 0.4542085085492732
-0.8237775118741373 0.3049064016544146 0.4779358713892606
-0.8409715851000115 0.2148786439263276 0.496582280633085
-0.8521338069180411 0.1195573351665971 0.5094840711104007
-0.85628644546382 0.02086375709256292 0.5160796711312298
-0.8529251847122483 -0.07883915576061122 0.5160455569061033
-0.8421376542672723 -0.1770256963013734 0.5093781248878179
-0.8246011085018164 -0.2713362223485462 0.4963966824014793
-0.8014578365253754 -0.3598622561320621 0.4776656706145064
-0.7741144786844893 -0.441315155367861 0.4538586867447634
-0.7440307119243124 -0.5150559618782105 0.4256003475646042
-0.712549094029157 -0.5810103673647941 0.3933201515468712
-0.6807869564367185 -0.6395160374303581 0.3571391294929772
-0.6495822064868857 -0.6911482074755855 0.3167919069656189
-0.619468511338969 -0.7365509963971613 0.2715720772940947
-0.590651629356835 -0.7762767707596697 0.2202839710851755
-0.5629615867501 -0.810611885290726 0.1611912630052378
-0.5357600530784343 -0.8393459291337203 0.09197595757611882
-0.5077889583907431 -0.8614260781068664 0.009771678149951628
-0.4769893326208819 -0.8744330166171026 -0.08858936739699112
-0.4405871226536643 -0.8737872112096361 -0.2058613535325438
-0.3969743592292755 -0.8515056545092624 -0.3425631014182032
-0.3550887309779851 -0.7941595070402183 -0.4931761049666549
0 0 0
0 0 0
0 0 0
-0.2975571214232819 0.756748275720039 -0.5820582502508124
-0.3764074410712982 0.8239103484209477 -0.4236616292172671
-0.4184495841529038 0.8653020936912507 -0.2759569389883127
-0.4509162879234839 0.8807200661927245 -0.1449367665252271
-0.4790614550683477 0.8771442254004157 -0.0334384526331799
-0.5051015792587615 0.8609872811677219 0.05977705494349941
-0.5305141958767811 0.8364018730540603 0.1377918528973011
-0.5562696382215413 0.8055844873412589 0.2039551993649488
-0.5829267674951452 0.7693969804551833 0.261198526420243
-0.610716632642328 0.7278655449846767 0.3118283871589863
-0.639591818617524 0.6805167286952883 0.3575182338334519
-0.66924107600856 0.6266010364358587 0.3993588903735734
-0.6990795874400617 0.5652638087267732 0.4379093022171767
-0.7282295604630031 0.4957114738164133 0.4732355037342612
-0.7555125298533205 0.4174026911649723 0.504951295317552
-0.7794826848088292 0.3302687835525226 0.5322868349808736
-0.7985330043089223 0.2349349382368606 0.5542117066834736
-0.8110929394368932 0.132878253493925 0.5696240982823881
-0.815900687001121 0.02643766077696518 0.5775873259029674
-0.8122818559535311 -0.08139008658716693 0.5775585167703959
-0.800330164358777 -0.1873584569784197 0.569533525454049
-0.7809059519982272 -0.2884686278533251 0.554050308977589
-0.7554502375240473 -0.3823863949993026 0.5320484785659076
-0.725696122217212 -0.4676572199836405 0.5046403301323364
-0.6933840692809468 -0.5437022594451867 0.4728703686440855
-0.6600537066985185 -0.6106587738095846 0.4375213894690408
-0.6269318740818616 -0.6691524053970127 0.3989880745230318
-0.5948974058518677 -0.7200695168273962 0.357207177204879
-0.5644874372403837 -0.7643614991264839 0.3116174447153068
-0.5359114213072361 -0.8028785500203123 0.2611225429367184
-0.5090473241161004 -0.8362041179192438 0.2040428753599014
-0.4834029549603873 -0.8644414019980551 0.1380675401649567
-0.458034796466912 -0.8868891689290685 0.06026381386719622
-0.4314397382161776 -0.9015483200024239 -0.0327166469669851
-0.4014840719105273 -0.9044816860346266 -0.1439563115327036
-0.3653412691536853 -0.8894227480392257 -0.2746869715212679
-0.3176704455430325 -0.8491923771955233 -0.4218504409639824
-0.2325084164518812 -0.782840861904626 -0.5771481795964187
0 0 0
0 0 0
-0.3258788231336804 0.7869827366380678 -0.5238904130318327
-0.3540745591174099 0.8610696111501475 -0.3649525055942824
-0.3816636075246524 0.8978925103054017 -0.2193671138268714
-0.4065374116699612 0.9088549740360683 -0.09332721512284194
-0.429812749256166 0.9028279086765189 0.01275805203151715
-0.4526249692220695 0.885925030559744 0.1013285619380659
-0.4758339676736394 0.8617758658113895 0.1758533261357069
-0.5000275051367423 0.8321583170210087 0.2397603585238533
-0.5255621988337534 0.7976144897834171 0.2959653710226395
-0.5525926983866826 0.7579012654917573 0.346737626247451
-0.5810742178113709 0.7122834476125195 0.3937067990930895
-0.6107383676936425 0.6597266331882156 0.437903431921978
-0.6410479742796785 0.5990510445737406 0.4797867658314785
-0.671141764194342 0.5290991726182495 0.5192521525124274
-0.6997898461605537 0.4489562261381196 0.555637002207741
-0.725395493599536 0.3582379462926622 0.5877643674990007
-0.7460903615829291 0.2574173566696316 0.6140728595519209
-0.7599630899159501 0.1481012376335002 0.632868173774623
-0.7654163526726531 0.03311302422030461 0.6426829192442239
-0.7615637237758145 -0.08375376086285165 0.6426554303591019
-0.7485016577613789 -0.1983260888103212 0.6327811871616186
-0.7273103635670394 -0.306799484978862 0.6139166971704592
-0.6997793700523509 -0.4063421282818745 0.5875328995320099
-0.667999252699767 -0.495357987009345 0.5553354509650915
-0.6339877986007858 -0.5734127066721528 0.5189001243517334
-0.599447089343177 -0.640955013505708 0.4794161634111744
-0.5656614130538153 -0.6989809037648979 0.4375532675617525
-0.5334954639492796 -0.7487358309712212 0.3934173933183147
-0.5034411360202684 -0.7914877527514919 0.3465460428384866
-0.4756716023190802 -0.8283585778080974 0.2959030133657718
-0.450076466234849 -0.8601754604410865 0.2398527710836689
-0.4262637073580511 -0.8872883014888501 0.176121327017487
-0.4035234418161063 -0.9092897524133768 0.1017888896731983
-0.3807639278055566 -0.9245748831192681 0.01342075955658846
-0.3564669990093495 -0.929720818092578 -0.09246880026547054
-0.3287919470642521 -0.9188109598836308 -0.2183627155524
-0.2962621518051677 -0.8830343681751698 -0.3639767053387481
-0.2620639288912198 -0.810594647882125 -0.5236972541449408
0 0 0
0 0 0
-0.3071379362603823 0.8274626115847136 -0.4700764986032785
-0.3198844925848951 0.8944395843381949 -0.3124927861129291
-0.337883409847519 0.9254847451597545 -0.171209777251174
-0.3568163834488957 0.932810657473144 -0.05046132981770129
-0.376028392406438 0.9252214174360792 0.05067520914413302
-0.3958203235342946 0.9083041620707557 0.1353137858540216
-0.416615617886544 0.8851716032907101 0.2071295721541614
-0.4387615150355372 0.8572218731905039 0.2695533213438171
-0.462497832938396 0.8247276439298193 0.325453633971501
-0.4879496510909553 0.7872284447031456 0.3770630104511455
-0.5151050463451106 0.7437713059666747 0.4259941732587761
-0.5437694073254777 0.6930629796300545 0.4732637086479469
-0.573496278819287 0.6335961148286285 0.5192860304827174
-0.6035008517019882 0.5638082345395802 0.5638324189511772
-0.6325747805278147 0.4823265056355521 0.60597878593362
-0.6590426419241201 0.3883317344078819 0.6440972443485858
-0.6808251292483967 0.2820234773208682 0.6759732994902602
-0.6956807722182874 0.1650733546678785 0.6991273494467651
-0.7016501122128556 0.04084239521999952 0.7113501379660933
-0.6976008183507935 -0.08589324237921275 0.7113195127014924
-0.683626659190503 -0.209786041681103 0.6990310490670679
-0.6610532166082986 -0.3260363184134857 0.6758024592195573
-0.6320425874526072 -0.4312564693664315 0.6438478277324643
-0.5990346893788381 -0.523769656716802 0.6056589697375592
-0.5642787756764065 -0.6034047830997958 0.5634644008750006
-0.52957075327063 -0.6710400528129704 0.51890275081285
-0.4961808289567977 -0.7281258265285639 0.4729031250878345
-0.4648987909855767 -0.7763079197701455 0.4256937019058395
-0.4361254017819641 -0.81717466447371 0.3768556774984285
-0.409962047814503 -0.8520961548312622 0.3253663508624025
-0.3862737279972222 -0.8821024904302667 0.2696067570292862
-0.364715215277187 -0.907740956225226 0.2073382939464558
-0.3447200360992585 -0.9288475720980564 0.1356845036077122
-0.3254681085147796 -0.94416581967289 0.05119975880051199
-0.3058968704779391 -0.9507600029669097 -0.04982490732720282
-0.2849696168004508 -0.9432349589068875 -0.1705876015322503
-0.2628467151386545 -0.9129140578619367 -0.3122491429914109
-0.2446984748583095 -0.8473369139485426 -0.4713202845859455
0 0 0
0 0 0
-0.2579226475020444 0.8681949370176987 -0.4239262426913079
-0.2704310602133979 0.9246751553975769 -0.2680352563793121
-0.2858594459766308 0.9492060067543845 -0.1315003189628389
-0.3017049400909803 0.9532711055643721 -0.01575843966822512
-0.3179394145467169 0.944634766995384 0.08111526158046374
-0.3349440961212083 0.9281047810582893 0.1625852633244811
-0.3530778800617718 0.9062717767402095 0.2323950887932622
-0.3726182621641538 0.8802009604119116 0.2939420010677506
-0.3937698778203213 0.8499462068543518 0.3500524657465907
-0.4166659311909683 0.8148764715765164 0.4029464453941361
-0.4413461747372454 0.7738622429978654 0.454258497892018
-0.4677078205262673 0.7253825803063838 0.5050440642227377
-0.4954274400800734 0.6676142377702372 0.5557363413905644
-0.5238550463849093 0.598568230692864 0.6060461728138198
-0.5518935936550419 0.5163449874556929 0.6548292259909473
-0.5779036351371657 0.4195711481245407 0.6999910286258701
-0.5997123069223402 0.3080275130910726 0.7385554820762034
-0.6148358789464978 0.1833443658754118 0.7670473814972776
-0.6209896316830003 0.04944081510021271 0.782257939010169
-0.6167934463131168 -0.0877369647604529 0.7822199624145438
-0.6023308140100572 -0.2213956932131368 0.7669299430330359
-0.5791629435092647 -0.3455509067522229 0.7383527989439738
-0.5497844865803967 -0.4562360886953887 0.699703972896726
-0.5169008981880745 -0.5517979692879227 0.6544711319394354
-0.4828818792370965 -0.6324728514845069 0.6056427848488797
-0.4495074764286281 -0.6996864644900943 0.5553214204801733
-0.4179463616366815 -0.7554108519733056 0.5046536272688669
-0.3888549022254759 -0.8017125770390299 0.4539259948853476
-0.3625083339460218 -0.8404882604493902 0.4026998781554777
-0.338914586518369 -0.8733255683077235 0.3499133532534506
-0.3178903169170734 -0.9014175623363335 0.2939253727087618
-0.2990936216495145 -0.9254633916907581 0.2325091742895636
-0.2820143182306171 -0.9454917253614783 0.1628291177458573
-0.2659307401913003 -0.9605431564484429 0.08147199531967264
-0.2498702072957344 -0.9681578717914947 -0.01533671392930567
-0.2327079718051824 -0.9636663967373923 -0.1311261821967245
-0.2138738773243679 -0.9393860033094977 -0.2679774270054268
-0.1964255102675428 -0.8836594158919951 -0.4249271180114923
0 0 0
-0.08991240225900311 0.8271736084783392 -0.5547067525791785
-0.1765184564401155 0.9047244583718962 -0.387704641395583
-0.209176654767921 0.9493812925447139 -0.2343507808099417
-0.2277522807056329 0.9684233559540197 -0.1014154932746257
-0.2424191444818986 0.9701131276840657 0.01065259985652722
-0.2562850510021964 0.9609448676831226 0.104417115006434
-0.2705107726512093 0.9450426537452411 0.1836254461718126
-0.2856306730128469 0.9245862303344623 0.2521020057638094
-0.3019488989378634 0.900390654703386 0.3132467579289838
-0.3196726710466241 0.8723505844671967 0.3698835508178976