# OOMMF: rectangular mesh v1.0
# Segment count: 1
# Begin: Segment
# Begin: Header
# Title: 
# Desc: time = 5.4e-10
# Desc: stepsize = 6.965254166791396e-14
# Desc: step = 3454
# meshunit: m
# valueunit: (none)
# valuemultiplier: 384000.0000000001
# xmin: 0
# ymin: 0
# zmin: 0
# xmax: 9.357999999999999e-08
# ymax: 9.357999999999999e-08
# zmax: 2.3395e-08
# ValueRangeMaxMag: 1
# ValueRangeMinMag: 0
# meshtype: rectangular
# xbase: 1.16975e-09
# ybase: 1.16975e-09
# zbase: 1.16975e-09
# xstepsize: 2.3395e-09
# ystepsize: 2.3395e-09
# zstepsize: 2.3395e-09
# xnodes: 40
# ynodes: 40
# znodes: 10
# End: Header
# Begin: Data Text
0 0 0
0 0 0
0 0 0
0 0 0
0 0 0
0 0 0
0 0 0
0 0 0
0 0 0
0 0 0
0 0 0
0 0 0
0 0 0
0 0 0
0 0 0
0 0 0
-0.8360613419208481 0.02009528269717892 -0.548267828856327
-0.845539039778566 0.03878146226045019 -0.5325032679667621
-0.8555827396272471 0.01971880936898176 -0.5172903867355392
-0.8605847298929274 -0.01500309680632693 -0.5090862694684825
-0.8587964264085671 -0.05418346276190731 -0.5094436674952423
-0.8503261971101362 -0.08916757418362187 -0.518646799105539
-0.83721195897056 -0.1086456145395309 -0.5359778598020672
-0.8256670795515814 -0.0898704303983734 -0.5569534805392394
0 0 0
0 0 0
0 0 0
0 0 0
0 0 0
0 0 0
0 0 0
0 0 0
0 0 0
0 0 0
0 0 0
0 0 0
0 0 0
0 0 0
0 0 0
0 0 0
0 0 0
0 0 0
0 0 0
0 0 0
0 0 0
0 0 0
0 0 0
0 0 0
0 0 0
0 0 0
0 0 0
0 0 0
-0.782997339997251 0.2312804325626713 -0.5774292398821285
-0.8106841379351838 0.2608315356970299 -0.5241737674533287
-0.8473304656818333 0.2434501481712424 -0.4719778673654167
-0.8835365302778818 0.1951575666093751 -0.4257660435727913
-0.9150728964086597 0.1132597077000925 -0.3870579192704307
-0.9278735271069947 0.07256956492203331 -0.3657654657578426
-0.9357091186817997 0.03364038686711539 -0.3511648752184079
-0.9390591493487057 -0.00915101375083075 -0.3436337774023627
-0.9374161100629544 -0.05370789843872494 -0.3440443259810196
-0.9308194804637423 -0.09664085291519542 -0.3524707652232049
-0.9198043607950293 -0.1358137778190948 -0.3681230169616571
-0.9036120466884587 -0.1766640912210404 -0.3902243815454614
-0.866902447332956 -0.2579712950789984 -0.4265336536820923
-0.8259940257771764 -0.3070013712410496 -0.4727409728768261
-0.7853619905246906 -0.3254741040272435 -0.5265673285029734
-0.755028738579974 -0.2967897021072362 -0.584677241425926
0 0 0
0 0 0
0 0 0
0 0 0
0 0 0
0 0 0
0 0 0
0 0 0
0 0 0
0 0 0
0 0 0
0 0 0
0 0 0
0 0 0
0 0 0
0 0 0
0 0 0
0 0 0
0 0 0
0 0 0
0 0 0
0 0 0
-0.7569974295082269 0.3257598281612082 -0.5664233629312233
-0.794562431960546 0.3539732634013039 -0.493328967843946
-0.8494858163668056 0.3164921690958311 -0.4221451820080824
-0.8832479891242051 0.2950487458226126 -0.3644437230856782
-0.9130471755726957 0.2616073177244031 -0.3129000902712648
-0.9394304556826962 0.2126155411640718 -0.2688215962144964
-0.9601718833736324 0.1513940657980333 -0.2348399268009423
-0.972068582771081 0.09788268584775278 -0.2133111581719332
-0.9786936379830955 0.04726069683368939 -0.1998128862366166
-0.9811461022495773 -0.003498184745282173 -0.193235837110897
-0.9795593126818071 -0.05460505462959054 -0.1936022751602991
-0.97392909727574 -0.1053521285628082 -0.2009055561375719
-0.9640669854600825 -0.1559513470190423 -0.215067489195496
-0.9486720500493963 -0.2094071090916299 -0.2370021183807463
-0.9238398035390349 -0.2705244799417433 -0.2708071696783635
-0.8934621914580287 -0.3197989211747398 -0.3153632230468361
-0.8599489816217896 -0.3537602792389959 -0.3678877734315096
-0.8226479835852621 -0.375828334004372 -0.4266185163147511
-0.7634127122206443 -0.4133570053588076 -0.4963235002906043
-0.7227516888034337 -0.3862871911076641 -0.5730725977726863
0 0 0
0 0 0
0 0 0
0 0 0
0 0 0
0 0 0
0 0 0
0 0 0
0 0 0
0 0 0
0 0 0
0 0 0
0 0 0
0 0 0
0 0 0
0 0 0
0 0 0
0 0 0
0 0 0
-0.761330302760554 0.4067047950839441 -0.5049429470289188
-0.8123356220110469 0.4061085655666444 -0.4185530673466953
-0.8519786774161436 0.3958683323280082 -0.3426668888119771
-0.8898198675902316 0.3641735745797282 -0.2749512880848629
-0.9191395414216685 0.3275783572505612 -0.2188033894988552
-0.943496551179505 0.2837232274379769 -0.171217370977822
-0.963858060064075 0.231441612940609 -0.131956128500977
-0.979620860870088 0.1729603394522514 -0.1021160610516726
-0.9900025435063381 0.1147120601902092 -0.0820737905661606
-0.9959101963403056 0.05742040831179635 -0.06975512550859239
-0.9979530225791587 0.0004558204579553539 -0.06394964388353046
-0.9963351769472711 -0.05643682136528999 -0.06427363667656824
-0.9910480275404228 -0.1132417777527528 -0.07071143386774791
-0.9818523021147381 -0.1702230093577133 -0.08360731975845306
-0.9680709221776558 -0.2280284243313812 -0.1041236156260912
-0.9487663374436133 -0.2859957251210644 -0.1343461281403669
-0.9249411721400163 -0.337854551627517 -0.1741784430543044
-0.8972331018613143 -0.3814384777163936 -0.2224352684304449
-0.8645130840195716 -0.4180004142650786 -0.2790927824813664
-0.822918758981962 -0.4499788639456375 -0.3468771225056217
-0.779627802166261 -0.4610470117251896 -0.4238114475432174
-0.7250317330961751 -0.4616381301568058 -0.5110960993677059
0 0 0
0 0 0
0 0 0
0 0 0
0 0 0
0 0 0
0 0 0
0 0 0
0 0 0
0 0 0
0 0 0
0 0 0
0 0 0
0 0 0
0 0 0
0 0 0
-0.6571855561297381 0.4969851786865968 -0.5666682247843952
-0.7085205770287065 0.5322769823956114 -0.4633355219910623
-0.7883800661383996 0.4970206852278654 -0.3625290467965773
-0.8377973761914821 0.4699059878057549 -0.2779998544441441
-0.8743342074730662 0.4394737907940029 -0.205918626762111
-0.9049685654449962 0.4003041172920239 -0.1441822084567943
-0.9301514388729639 0.3552351118569457 -0.09287796329882322
-0.9511354542700262 0.3046278998650183 -0.05043005308720549
-0.9684767480158653 0.2485799645999185 -0.01614898610181687
-0.9820378965056881 0.1884243983109025 0.009890194530795884
-0.9915393993372166 0.1267681511812797 0.02791872862562924
-0.9971307417287573 0.064837261242879 0.03906934161180971
-0.9990149734925086 0.002929410027195108 0.04427754842642229
-0.9972960053782393 -0.05887597107626701 0.04398065127340511
-0.9919784853219821 -0.1205007740371601 0.03818701500184087
-0.9829655938348202 -0.1818727577555102 0.02647529647358562
-0.970064832018254 -0.2427169604898146 0.00791825561482625
-0.9531675282220429 -0.3018681299353817 -0.01863585985125845
-0.9326380411894647 -0.3568293637451189 -0.05347045254653492
-0.9085988132605408 -0.4063806740758554 -0.09645177177838338
-0.8803620968514529 -0.4505692152178978 -0.1481551913543364
-0.8464807289079859 -0.4892093163255176 -0.2101062122064078
-0.8064002647563745 -0.5195952206819479 -0.2823816914131052
-0.7527422604703509 -0.5468994524689628 -0.366442462319986
-0.6673989740992768 -0.5821542046758399 -0.4644083239450735
-0.611842465435596 -0.5483739181793992 -0.5700305635229258
0 0 0
0 0 0
0 0 0
0 0 0
0 0 0
0 0 0
0 0 0
0 0 0
0 0 0
0 0 0
0 0 0
0 0 0
0 0 0
-0.6361578396890569 0.5434433352249696 -0.547697493514178
-0.6992267267679204 0.5668186852471143 -0.4356587685656654
-0.7505257402483282 0.5718130536177422 -0.3312717086276028
-0.8022137764345811 0.5485610593402577 -0.2356561500874977
-0.8427577842706077 0.5153730819561367 -0.1554023920225437
-0.8750509313330025 0.475852390127593 -0.08860231590145566
-0.9021187070636838 0.4302313276816668 -0.03290658060353754
-0.9251001394966121 0.3794992858470924 0.01303932302288263
-0.9446461066395877 0.3241634893042545 0.05061388557262404
-0.9609771141163483 0.264603972198966 0.08067046573029669
-0.9739588471876915 0.2016789022173182 0.1035846725400993
-0.9833410462724724 0.1367394027436559 0.119761105760872
-0.9889934773652186 0.07082829450447897 0.129904789852565
-0.9908811977999684 0.004556651737094961 0.1346613855990121
-0.9890075412517959 -0.06169033624067851 0.1343814933746025
-0.9833939648566606 -0.1275847895645968 0.1290675457086477
-0.974082323804938 -0.1927466278535681 0.1183738311530434
-0.9611605673235628 -0.2565851822834377 0.1016582906349572
-0.9448217605856026 -0.3181102035904886 0.07821597723956095
-0.9253688346000545 -0.3760616497676642 0.04764614910944164
-0.9029216838894848 -0.4296976247274797 0.00961166300587492
-0.8771655464550863 -0.4787845159494303 -0.03668775543990858
-0.8472919010490806 -0.5229922585176027 -0.09260416808811268
-0.8119576340429601 -0.5615050407286526 -0.1594894659708659
-0.7678153103885635 -0.5942059374973305 -0.2395390426962411
-0.7117415219955332 -0.6176366788968969 -0.3345877145812335
-0.6559447602242194 -0.6137343443525501 -0.4393934752548518
-0.5886148861687224 -0.5910829001482059 -0.5515011522498998
0 0 0
0 0 0
0 0 0
0 0 0
0 0 0
0 0 0
0 0 0
0 0 0
0 0 0
0 0 0
0 0 0
-0.5938424831680874 0.5890594135177405 -0.548051195173311
-0.6623431865455512 0.6164548667487467 -0.4257756457319622
-0.7156096174628596 0.624267302002133 -0.3133579599206581
-0.7595678499059896 0.6145843310250135 -0.2129384452083004
-0.799105607636309 0.5880578921097367 -0.1249725704771158
-0.8330187014858188 0.5508715186554524 -0.05118996883291902
-0.8621158735623307 0.5066164628246884 0.009796945792430426
-0.8875436054092407 0.4567865619873205 0.06010312209002949
-0.9099094834607215 0.4022154219335398 0.1014272461770833
-0.9294314935526822 0.3433698597079277 0.1351082463678202
-0.9460378739869699 0.2806416630946283 0.1620265346099046
-0.9594520853008677 0.2146523800224446 0.1826911376135023
-0.9693237092370934 0.1462952529466146 0.1975075838445909
-0.9753611210862649 0.07646637461567633 0.2069385827400934
-0.9773815171686204 0.005921469739680973 0.2114008185728881
-0.9753136214364357 -0.06470053450854903 0.2111330875889711
-0.9691939528133725 -0.1348008541903246 0.2061354203904526
-0.959168894538716 -0.2037451016931561 0.1961707554285861
-0.9455001848725151 -0.2707961474878415 0.1808282248759367
-0.928555730596319 -0.3351035579460754 0.1596554434669135
-0.9087395913840296 -0.395852011911128 0.1322631457250968
-0.886331820048598 -0.4525250387097333 0.09816819296540678
-0.8613472866183438 -0.5048629986705255 0.05651729300507051
-0.833451053673125 -0.552560857110027 0.005986678627524143
-0.8018548683831388 -0.5949714489371832 -0.05511574185155788
-0.7651584383641509 -0.6308099086129479 -0.1288853110166462
-0.7223076506971895 -0.6567266934236214 -0.2167526421734761
-0.6744431041862529 -0.6667152571220254 -0.3172022464238267
-0.6165611911308337 -0.659882289824621 -0.4294271313821957
-0.5433622388261617 -0.6333286823254306 -0.5510465112508691
0 0 0
0 0 0
0 0 0
0 0 0
0 0 0
0 0 0
0 0 0
0 0 0
0 0 0
-0.5510281445050582 0.6126957086513766 -0.5665438664070942
-0.6161156154767636 0.656208431749132 -0.435651285395823
-0.6688430407060082 0.6741308630056195 -0.3133633138107253
-0.7122270252896998 0.6714112215657621 -0.2047916892907418
-0.7493058258683294 0.6528904047793619 -0.1107921417196241
-0.7825798469947319 0.6217981219272084 -0.03059213371926897
-0.8126965509826322 0.58154381304239 0.03648437382018506
-0.8401143918224036 0.5345445490221181 0.09203224306520359
-0.8651866742080304 0.4821075909623217 0.1379285666907089
-0.8880091327141559 0.4249051787741205 0.1757707861596588
-0.9084347920490289 0.3633126174420981 0.2067611438404437
-0.9261273605721586 0.2976686591103125 0.2316926442145166
-0.9406261610080726 0.228477440280323 0.2510388107647231
-0.9514355600303999 0.1564675261088477 0.2651193851513232
-0.9581228575269959 0.08249795908469508 0.2742164776798859
-0.9603876707903228 0.007457856540695141 0.2785675899485727
-0.9580972755847504 -0.06777320832184315 0.278309904155138
-0.9513006648242111 -0.1423233029356515 0.2734430883136384
-0.9402292172488804 -0.2153178818117594 0.2638318191645092
-0.9252813448759706 -0.2858857867302564 0.2492463636046409
-0.9069788985031295 -0.3532088141478708 0.2294184196578468
-0.8858825395907812 -0.4166262572901368 0.2040457982527451
-0.8624778596396354 -0.4757265018521799 0.1726737880134694
-0.8370773498070121 -0.5302872092806848 0.1345250389829783
-0.8097501077717069 -0.5800769378240823 0.08840536843622071
-0.7802595759221138 -0.6245994969741978 0.03271792416125154
-0.7480388126335064 -0.6627618211105696 -0.03441951876558966
-0.712355366950716 -0.6923950359000138 -0.1146252390947482
-0.6722579125877515 -0.7103190782067463 -0.2086051439890122
-0.6249111293532758 -0.7134142175474345 -0.3170587242319547
-0.5672632970873145 -0.6966809682384921 -0.439144600640729
-0.4972690552746474 -0.6542476438867811 -0.5698100623320502
0 0 0
0 0 0
0 0 0
0 0 0
0 0 0
0 0 0
0 0 0
0 0 0
-0.5843709740691857 0.6680894650363639 -0.4606159260955437
-0.619678540908796 0.7117987006475093 -0.3306676816588857
-0.658578637089695 0.7217908492601585 -0.2128195214104624
-0.6940846565361476 0.7113202964293786 -0.1107696955341046
-0.7262450828119599 0.6870146712990112 -0.0240607795252032
-0.7561761688482295 0.6525295308224897 0.04901849722905578
-0.7845051289478526 0.6102522727218512 0.1101992118498492
-0.8114707966161636 0.5616994229418999 0.1612727643027944
-0.8370523085258933 0.5077009676569276 0.2039194944866514
-0.8610098850497508 0.4486633697140051 0.2395060719971175
-0.8829191214893705 0.3848146108095949 0.2690195907659845
-0.9022124866928569 0.3164092120728488 0.293083331786251
-0.9182341407772986 0.2438829441645769 0.3120371328169023
-0.9303169453123681 0.1679206962249742 0.3260567757983012
-0.9378744500773747 0.08942963796940333 0.3352519287710702
-0.9404852631542188 0.009469387501013749 0.3397025176387348
-0.9379531595455541 -0.07081657624284332 0.3394538010212186
-0.9303375713516439 -0.150259287992004 0.3345058291026636
-0.9179530126839016 -0.2277209350574632 0.3248160129074653
-0.9013352781467402 -0.3021596292139803 0.3103131883136903
-0.881173316077644 -0.3727057346019631 0.290902083917491
-0.8582131999951734 -0.4387351573776018 0.2664236570481203
-0.833155195213736 -0.4998949199145173 0.2365533549371452
-0.80656910939712 -0.556034433876658 0.2006787983564793
-0.7788323161992485 -0.6070534459601756 0.1578174166294368
-0.7500772184750971 -0.652702486725425 0.106600329019696
-0.7201422282083554 -0.6923435558965879 0.04533841373021597
-0.6885191341902427 -0.7246860761372913 -0.02777576113545804
-0.6542226045643591 -0.7475853219784404 -0.1144944105160475
-0.615724802015142 -0.7576126181532845 -0.2165781360117842
-0.5727590515531134 -0.7482523270440635 -0.3347618914051017
-0.5330697813651327 -0.705827459480097 -0.4665235317100317
0 0 0
0 0 0
0 0 0
0 0 0
0 0 0
0 0 0
0 0 0
-0.4640484977854322 0.7260254581647648 -0.5074899267963124
-0.5489296518541358 0.7531580341028828 -0.3625316716944565
-0.5960155463684295 0.7676481579891541 -0.2355456941296114
-0.632462259457678 0.7644508386701631 -0.1249256003314465
-0.664301458115923 0.7468395651656653 -0.03056528501777229
-0.6938042681847876 0.7184919347991383 0.04904056562848492
-0.7221697987688325 0.681910219336501 0.116057031284745
-0.749947778208737 0.6385915107030407 0.1725665448972847
-0.7772417082833715 0.5893425000963167 0.2203877140064041
-0.8038460879158841 0.5345133185269427 0.2610114542690474
-0.8293241404541646 0.4742027516213356 0.2955557822386734
-0.8530543358525499 0.4084449449707454 0.3247630320880271
-0.8742713775730535 0.3373759557889409 0.3490372799745225
-0.8921207511744166 0.2613688180119789 0.3685198858881499
-0.9057390844819764 0.1811125229590969 0.3831905072795269
-0.9143577302341549 0.09761937882652562 0.3929636090512288
-0.9174111111080043 0.01217172887168406 0.3977545753751308
-0.914625782854974 -0.07377117112790882 0.3975141401854054
-0.9060702543169429 -0.1586895690491844 0.3922426735032967
-0.8921535501400402 -0.2411298381019866 0.3819927278750631
-0.8735709895789983 -0.3198264364963831 0.3668579789019101
-0.8512073501378145 -0.39380178442082 0.3469383254388844
-0.8260187915195327 -0.4624228120178215 0.3222702266454975
-0.798920303099907 -0.5253928526782059 0.2927263220986611
-0.7706983768728665 -0.5826710844045807 0.2579116501523698
-0.7419491868741087 -0.6343380289345854 0.2170867779120441
-0.7130269764635241 -0.6804318851690346 0.1691300697114438
-0.6839819977782057 -0.7207656359715884 0.1125412134189313
-0.6544642152769931 -0.7547233935226121 0.04548835226276329
-0.6235700086442982 -0.7810223672907457 -0.03412486059911188
-0.5896449659500614 -0.7973782320443573 -0.1284786721271856
-0.549947752315798 -0.8002482195987606 -0.2390821129901088
-0.4981990417938548 -0.7861236070177138 -0.3657969235042082
-0.407646735166505 -0.7587967813330373 -0.5079877793281168
0 0 0
0 0 0
0 0 0
0 0 0
0 0 0
-0.388673359594386 0.7242203685411072 -0.5695944849906777
-0.4631335075441695 0.7804645279568827 -0.4199791361375875
-0.521409589973381 0.8066196917780381 -0.2783823132307309
-0.5631349770219612 0.8116082765318018 -0.1554702644223412
-0.5964849386614277 0.8009918446401668 -0.05116427239798362
-0.6260458776219134 0.7789291583157726 0.03655031378920872
-0.6541158211326118 0.7483118943847871 0.110280557063608
-0.6818326127050484 0.7108465402036617 0.1726310647951029
-0.7096647993136748 0.6673608148771127 0.2258437853509301
-0.7376402417363046 0.6181154098863888 0.2716987556691913
-0.7654683131205502 0.5630400239634997 0.3115191695924349
-0.7926063880544687 0.501918375155196 0.3461980044668311
-0.8182985211958944 0.4345516949940196 0.3762344409891739
-0.8416112950146361 0.3609134344175808 0.4017859143383368
-0.8614893162714211 0.2812892445390799 0.4227440346791807
-0.876846227404654 0.1963794393084302 0.4388346035844619
-0.8866924397095179 0.1073373052223809 0.4497279402812102
-0.8902811090714808 0.01572700389997527 0.455139767740398
-0.88723846303536 -0.07659889020823615 0.4549071550652042
-0.8776409363701179 -0.1676843420143039 0.4490304535892993
-0.862013450598851 -0.2556808418934915 0.4376758139025925
-0.8412473293984118 -0.3390381388234627 0.4211366419621568
-0.8164621783755248 -0.4166338741008845 0.3997570840322665
-0.7888504104233789 -0.4878195715348599 0.3738276281956855
-0.7595409625837579 -0.5523816652838769 0.3434705548013525
-0.7295015753021379 -0.6104362073548077 0.3085370129854384
-0.6994771161035985 -0.6622866092137453 0.2685297214528635
-0.6699451404304588 -0.7082686947532386 0.2225510387442747
-0.6410639417192913 -0.7485889124951275 0.1692680203602759
-0.6125869177208447 -0.7831423812010648 0.1068890967498574
-0.5837173851945158 -0.8112793235096661 0.03316434029760076
-0.5528631574211724 -0.8314874657693619 -0.05450617795017011
-0.5171652471746349 -0.8410467806451323 -0.1586833951025026
-0.4714865041872939 -0.8358418398605141 -0.2811919186389165
-0.4074752566481776 -0.8100834309560352 -0.4215788776848285
-0.3269601609122897 -0.7544104402487048 -0.5691765462665905
0 0 0
0 0 0
0 0 0
0 0 0
-0.4153215491616812 0.7647697355586276 -0.4925802090782042
-0.4517687777927366 0.8235999832136859 -0.3429111241445404
-0.4908203957717576 0.8465419302543062 -0.2060633383592716
-0.5244780601014387 0.8468026006377652 -0.08858961578733998
-0.5539782500574626 0.8324721288444062 0.009912273227312262
-0.5814714478907897 0.8083245352890357 0.09220846456563754
-0.6084569451157189 0.7769850240198514 0.161475751706929
-0.6357691768293154 0.7396909414547698 0.2205784779245941
-0.6637516970458546 0.6968099092076955 0.2718264797599942
-0.6923817027651966 0.6481917616756813 0.3169463957386847
-0.7213381634583822 0.5934067834017051 0.3571269289080975
-0.7500331768346395 0.5319242648932782 0.3930735428200215
-0.7776264588728848 0.4632733472932601 0.4250586972978144
-0.8030453090885811 0.3872082761785507 0.4529768011826433
-0.82503473072205 0.3038768951166785 0.4764205345245321
-0.8422591739152516 0.2139676205488368 0.4947901992888162
-0.8534628897740899 0.1187925580391459 0.5074341572391191
-0.8576697094377976 0.02026222410593637 0.5138016268825584
-0.8543738002720674 -0.07927360417601813 0.5135767762366292
-0.8436580745549128 -0.1773020014487801 0.5067593645119479
-0.8261928204008547 -0.2714731795483274 0.4936676374890315
-0.8031127744027593 -0.359884066820602 0.4748613798149588
-0.7758179711002887 -0.4412469489804548 0.4510073233698881
-0.7457634007555888 -0.5149201809953425 0.4227223170086741
-0.7142890210465381 -0.5808244376832135 0.3904281841803386
-0.6825113605973929 -0.6392910205397108 0.3542389500221426
-0.6512686952889405 -0.6908881212179379 0.3138832434147907
-0.621095659259591 -0.7362522749907797 0.2686499015815834
-0.5921989769675249 -0.7759276309933728 0.2173400173452382
-0.5644092707925168 -0.8101912558304756 0.1582160043083375
-0.5370881551718487 -0.8388219020373033 0.08896139745204083
-0.5089769983922623 -0.8607539224669131 0.006715658227293517
-0.4780164636726116 -0.8735535004655123 -0.09167629073201242
-0.4414347124783712 -0.8726267067305132 -0.2089450294211274
-0.3976359518502028 -0.8499808786395134 -0.345569321183729
-0.3556029513892656 -0.792188630635587 -0.495967453019809
0 0 0
0 0 0
0 0 0
-0.2988318912094045 0.7568681448398522 -0.5812487523624376
-0.37757720443461 0.823832713091227 -0.4227707600249715
-0.4195694345637167 0.8650403200665787 -0.2750758699686206
-0.4520130515163698 0.8802929987628472 -0.1441125865008768
-0.4801570790870414 0.8765727603529274 -0.03270130287693923
-0.5062142654585848 0.8602895896478344 0.06040645155763697
-0.5316576711517523 0.8355920942506292 0.1382966837322648
-0.5574531788924973 0.804673743186869 0.2043186735672529
-0.5841556527986429 0.7683953185514917 0.2614016215166658
-0.6119927198539166 0.7267841386004485 0.3118488844370121
-0.6409142055707582 0.6793700189610772 0.3573308808855298
-0.6706069327208284 0.6254086393763912 0.3989365558332962
-0.7004852769669211 0.5640518787538412 0.4372251763414786
-0.7296720997630837 0.4945131368540426 0.4722662218559641
-0.7569912810935175 0.4162569748910416 0.5036807830391716
-0.7810009183058781 0.3292176248750484 0.530710204421402
-0.8000986862065834 0.2340181713412152 0.5523382910975958
-0.8127180231960195 0.1321273983806607 0.567478427228306
-0.8175984930262495 0.02587017564362627 0.5752073002086927
-0.8140630220629179 -0.08177385703562749 0.5749908107224891
-0.8021985584160437 -0.1875742745304463 0.566827455589086
-0.782856263493411 -0.2885435949472934 0.5512519065944593
-0.757468030285675 -0.3823525246123102 0.5291963057483787
-0.727759977596524 -0.4675455025879091 0.5017635080578554
-0.695468614811765 -0.5435386374120337 0.4699884631052916
-0.6621325176608462 -0.6104620788157837 0.4346453489731832
-0.6289795449358997 -0.668933804918331 0.396121568069339
-0.596890729952714 -0.7198326140393407 0.3543479423699322
-0.5664057208502921 -0.7641025587586552 0.3087585449611657
-0.5377362632984116 -0.8025863033171821 0.25825362894163
-0.5107619886225946 -0.8358589567003032 0.2011516728296642
-0.4849916833533127 -0.8640137149104403 0.1351420272334998
-0.4594822369258938 -0.8863369924041294 0.05729581001764687
-0.4327310612102327 -0.900814925939417 -0.03572531131603447
-0.4026064897372943 -0.9034952933213841 -0.1469839085325979
-0.366288005200695 -0.888103308289497 -0.277678971208382
-0.3184440960330595 -0.8474741243591392 -0.4247128044259995
-0.233092189138768 -0.7807215390062655 -0.5797774658385614
0 0 0
0 0 0
-0.3270917682237982 0.787115189891251 -0.5229346546201431
-0.3552469540341441 0.8610013236618969 -0.3639729691912894
-0.3828133273208061 0.8976351848712444 -0.2184148147602159
-0.4076864292851703 0.9084307662036279 -0.09244089133817567
-0.430981524713634 0.9022589706547205 0.01355268344625721
-0.4538307129293855 0.8852293144926894 0.1020134538421687
-0.4770900092349558 0.860966659101529 0.1764129672210646
-0.501343319423658 0.8312456499888926 0.2401781535523385
-0.5269437019064552 0.7966072895747439 0.2962214732552323
-0.5540426258591891 0.7568097283129247 0.3468080216228727
-0.5825925664487499 0.7111214489702624 0.3935634463883719
-0.6123230191991891 0.6585139816605279 0.4375155495709686
-0.64269565373529 0.597815307532962 0.479123318936824
-0.6728494495762004 0.5278764952950519 0.5182856586092427
-0.7015565726905947 0.4477904170822747 0.554348372130656
-0.727224164587326 0.3571769969145686 0.5861481103913547
-0.7479887766987329 0.2565071379755382 0.6121412239837557
-0.7619431365568038 0.1473771868171512 0.6306525362351617
-0.7674907084303232 0.03259233834535512 0.640231014520776
-0.7637406192975975 -0.08407608968216751 0.6400245913858919
-0.7507798658202586 -0.1984750204025171 0.6300295702228064
-0.7296768894303699 -0.3068123969265089 0.6110955654588154
-0.7022108052001392 -0.406259527064176 0.5846821202412159
-0.670465599725025 -0.4952160802956579 0.5524825005391271
-0.6364569012313718 -0.5732392618384309 0.5160613932100423
-0.6018881424158605 -0.6407682327848707 0.4765991354093477
-0.5680470898146557 -0.6987900011398649 0.4347585974538604
-0.5358026784615477 -0.7485422367722127 0.390640511879507
-0.5056509348157289 -0.7912860365541319 0.3437783304317357
-0.477768479873212 -0.8281367475767357 0.2931327462987809
-0.4520475379956188 -0.8599143204685915 0.2370662035068248
-0.4280978601870298 -0.886959879086448 0.1733043421101704
-0.4052107895803442 -0.9088548153423145 0.09892997845325018
-0.3822957569492211 -0.9239801736562616 0.0105163163116317
-0.3578368818043629 -0.9288974806865538 -0.09540564131487693
-0.3299990127641307 -0.9176773226737354 -0.2212893649163092
-0.2973183045755914 -0.8815070485608151 -0.3668066917354373
-0.2630088892943594 -0.8086084948506953 -0.5262875888784
0 0 0
0 0 0
-0.3083390372174014 0.8276111344220624 -0.469027556022535
-0.3210717448729274 0.894382301259671 -0.3114373674395995
-0.3390714098681829 0.9252379352125393 -0.1701920745911486
-0.3580248345851255 0.9323982643428806 -0.04951458846316577
-0.3772768018445218 0.924665881407167 0.05152885164134396
-0.397125647662028 0.9076228937317734 0.1360584534050572
-0.417991559840157 0.8843769696917917 0.2077508877987173
-0.4402185153260186 0.8563228260675813 0.2700349538852075
-0.4640432730817821 0.8237319698704854 0.32577520243388
-0.4895880666744149 0.786145265664192 0.3771990803856564
-0.5168383583745834 0.7426136821803043 0.4259143462613991
-0.5455972854983976 0.6918505263391825 0.4729338762036142
-0.5754168312430579 0.6323572902068835 0.5186711172259403
-0.6055118147193036 0.5625816959577314 0.5629007706591435
-0.6346752319874615 0.4811604626323004 0.6047081602733108
-0.6612348997253261 0.3872801323057623 0.6424815223074267
-0.6831159273852514 0.2811382162548113 0.6740281397046047
-0.6980803746558826 0.1643934495755492 0.6968920893918606
-0.7041683047305983 0.04038341090909763 0.7088837554466754
-0.7002404555485497 -0.08614416098707156 0.7086906856598244
-0.686377821288505 -0.2098658960384276 0.6963058179587703
-0.6638916781381197 -0.3259944487337634 0.6730345155292707
-0.6349332872073087 -0.4311416791306985 0.6410745458310465
-0.6019378430995912 -0.5236214243408883 0.6029025103744639
-0.5671555987179925 -0.6032499437660804 0.5607352603404351
-0.5323872364522744 -0.6708933316797766 0.5162034172400631
-0.4989093004737903 -0.7279921415191374 0.4702307431327012
-0.4675179458578378 -0.7761847278431868 0.4230416510981691
-0.4386194076088304 -0.8170536160424813 0.3742143821137603
-0.4123193921958301 -0.8519636558859174 0.3227237950148122
-0.3884860294567434 -0.8819392218593666 0.2669490847765328
-0.3667763017444874 -0.9075203078402472 0.2046510086370917
-0.3466252871367154 -0.9285332111956369 0.1329548270056695
-0.3272143488912186 -0.9437087296294703 0.04842110594385938
-0.3074831569125142 -0.9500960938376253 -0.05264523425344204
-0.2864001949703429 -0.9422853594554574 -0.1734163477785416
-0.2641387144051432 -0.9115915196694092 -0.3150105408065173
-0.2458995763054075 -0.8455618437883701 -0.4738761090222132
0 0 0
0 0 0
-0.2591552198708274 0.8683720427704731 -0.4228103207684717
-0.2716555403168613 0.9246405542462324 -0.2669140551907552
-0.287097649321651 0.9489813627077327 -0.130419756890421
-0.3029799156776489 0.9528827890450879 -0.01474995042765813
-0.3192722261195786 0.94410594018321 0.08203181906690199
-0.3363528409671209 0.9274527235022573 0.1633958752282063
-0.3545776232313992 0.9055083211418201 0.2330866565174706
-0.3742212820623356 0.8793343013081799 0.2944989280022527
-0.3954859118109341 0.8489832372272589 0.3504544998515458
-0.4185023222680661 0.8138253435502355 0.4031676034251465
-0.44330792930116 0.772735134976702 0.4542669820614914
-0.4697977048595672 0.7241985802283526 0.5048034596790328
-0.4976463012433179 0.6664020986453401 0.5552084309337625
-0.5262025749736022 0.5973682519779039 0.6051958539349169
-0.5543696349356727 0.5152087983238904 0.6536315491092375
-0.5805098071584016 0.4185576416339136 0.6984395925366567
-0.602453057994103 0.307193629141002 0.736669795178772
-0.6177174256968783 0.18273131031026 0.7648754475224817
-0.6240153867879208 0.04906024326447974 0.7798704312786523
-0.6199565726849197 -0.08790900852670464 0.7796960011469977
-0.6056081383656953 -0.2214111231810803 0.7643401711783364
-0.5825152461338095 -0.345471789957548 0.7357480753391031
-0.5531631623391076 -0.4561175636516939 0.6971135373520158
-0.5202565138865688 -0.5516791362303491 0.6519074247212788
-0.4861707265230056 -0.6323755655888482 0.6031079246024517
-0.4526947089554833 -0.6996186105635545 0.5528121744650992
-0.4210064099713123 -0.7553706318554376 0.5021641278440578
-0.39177026697484 -0.801692033044291 0.4514487147703197
-0.3652678643684144 -0.8404753133104574 0.4002257300267252
-0.3415117280390972 -0.8733046848378979 0.3474315285807102
-0.3203217172113914 -0.901369165176733 0.2914234471543842
-0.3013580530472946 -0.9253622931693256 0.2299738033862782
-0.2841120368155353 -0.9453046964037314 0.1602478751608783
-0.2678631873559624 -0.9602260375106849 0.07883698209617609
-0.2516403752453781 -0.9676529924204718 -0.01802242508851184
-0.2343220729442083 -0.9629021180658536 -0.1338382499714549
-0.2153466589828964 -0.938281157489362 -0.2706552899267377
-0.1977968140467674 -0.8821340453817176 -0.427452858607161
0 0 0
-0.09135019642180192 0.8276829639398525 -0.5537111637103216
-0.1778269878137769 0.9049650343662077 -0.3865434632478563
-0.2104540911269097 0.949390736168501 -0.2331658328430164
-0.2290472211260475 0.9682372919265543 -0.100269222681575
-0.2437632917586249 0.9697638488606979 0.01172753315425108
-0.2577028620240178 0.9604579731558007 0.1054026408876015
-0.2720223997322289 0.9444363473170545 0.1845096201024187
-0.2872532040354098 0.9238725835747787 0.2528735772876514
-0.3036970594177285 0.8995777467903721 0.3138916589853598