# OOMMF: rectangular mesh v1.0
# Segment count: 1
# Begin: Segment
# Begin: Header
# Title: 
# Desc: time = 3e-10
# Desc: stepsize = 6.85877964859802e-14
# Desc: step = 1918
# meshunit: m
# valueunit: (none)
# valuemultiplier: 384000.0000000001
# xmin: 0
# ymin: 0
# zmin: 0
# xmax: 9.357999999999999e-08
# ymax: 9.357999999999999e-08
# zmax: 2.3395e-08
# ValueRangeMaxMag: 1
# ValueRangeMinMag: 0
# meshtype: rectangular
# xbase: 1.16975e-09
# ybase: 1.16975e-09
# zbase: 1.16975e-09
# xstepsize: 2.3395e-09
# ystepsize: 2.3395e-09
# zstepsize: 2.3395e-09
# xnodes: 40
# ynodes: 40
# znodes: 10
# End: Header
# Begin: Data Text
0 0 0
0 0 0
0 0 0
0 0 0
0 0 0
0 0 0
0 0 0
0 0 0
0 0 0
0 0 0
0 0 0
0 0 0
0 0 0
0 0 0
0 0 0
0 0 0
-0.8412651632421172 0.01573917252038696 -0.5403935635845291
-0.8503719565162369 0.03355048736918304 -0.5251113218814054
-0.8598723765067646 0.01396598644064657 -0.5103179864979752
-0.8642877562442295 -0.02109012976084396 -0.5025553510141799
-0.8619286518323914 -0.06049453011933771 -0.5034077978895798
-0.8529337638720811 -0.09565169006560365 -0.5131810096199955
-0.8393640798493877 -0.1153178753513096 -0.531196507032049
-0.8274805141912854 -0.09684638660156764 -0.5530793578103822
0 0 0
0 0 0
0 0 0
0 0 0
0 0 0
0 0 0
0 0 0
0 0 0
0 0 0
0 0 0
0 0 0
0 0 0
0 0 0
0 0 0
0 0 0
0 0 0
0 0 0
0 0 0
0 0 0
0 0 0
0 0 0
0 0 0
0 0 0
0 0 0
0 0 0
0 0 0
0 0 0
0 0 0
-0.7899855592912344 0.2282779922545127 -0.5690447911751441
-0.8172167890458436 0.2567545573633646 -0.5159785043727529
-0.8531398816385104 0.2386725123360838 -0.4638833627249525
-0.8884914328457254 0.1899860156380268 -0.4177179522377946
-0.9191035844521648 0.108015403649339 -0.3789211971131362
-0.9313455998559443 0.06690625206970742 -0.3579370434349529
-0.9386478808925697 0.02760891641163022 -0.3437701316729876
-0.9414698127530661 -0.01544074661879305 -0.336743485487931
-0.939324149304703 -0.06015883817176873 -0.3377144603401198
-0.9322634428700846 -0.1031816716717462 -0.3467541142063633
-0.9208173398772622 -0.1423877358719369 -0.3630718375950209
-0.904185551605395 -0.1831742143904316 -0.3858700499526947
-0.8669073726231927 -0.264073774252207 -0.4227725736654951
-0.8256167719655061 -0.3127836551088755 -0.4695991172755637
-0.784696643539301 -0.3310457192048716 -0.5240800601189515
-0.7541596804915744 -0.3023053614925756 -0.5829705350476033
0 0 0
0 0 0
0 0 0
0 0 0
0 0 0
0 0 0
0 0 0
0 0 0
0 0 0
0 0 0
0 0 0
0 0 0
0 0 0
0 0 0
0 0 0
0 0 0
0 0 0
0 0 0
0 0 0
0 0 0
0 0 0
0 0 0
-0.7641867897329186 0.3237777702019395 -0.5578409324536476
-0.8012352001151941 0.3508816427527805 -0.4846691932395479
-0.8552692074688962 0.3127317629479031 -0.413174814332895
-0.8883708759249132 0.2904899182685373 -0.3555457694766462
-0.9174565100540854 0.2564010343270262 -0.3041908311494753
-0.9430756645846082 0.2069549461995488 -0.2603419695551233
-0.9630673048191741 0.1454302650825554 -0.2266084826001644
-0.9743691865991283 0.09160020482307353 -0.2054606791639788
-0.9804627613128553 0.04071522182602506 -0.1924449126124868
-0.9824167102525982 -0.01021356103824708 -0.1864218082397537
-0.980364405511547 -0.06139362066868465 -0.1873938519460546
-0.9743045462698888 -0.112125447133714 -0.1953420979279421
-0.9640428794593003 -0.1626226926180073 -0.2101789390245594
-0.9482637420045457 -0.2158690195265552 -0.2328012929693037
-0.9230591974892242 -0.276637160620069 -0.2672706480229637
-0.8923974106621891 -0.3255604764870968 -0.3124695786679301
-0.8586529489084801 -0.3592064870359029 -0.3656307057703116
-0.8211207696470114 -0.3809625084360262 -0.4250038221244955
-0.761546302685552 -0.4180215881374932 -0.4952829299672796
-0.720692213394195 -0.3906791303513316 -0.5726888777171274
0 0 0
0 0 0
0 0 0
0 0 0
0 0 0
0 0 0
0 0 0
0 0 0
0 0 0
0 0 0
0 0 0
0 0 0
0 0 0
0 0 0
0 0 0
0 0 0
0 0 0
0 0 0
0 0 0
-0.7680586614806988 0.4049199648526949 -0.4961105870551133
-0.8183588600438954 0.4033600324024419 -0.4093769173365251
-0.8573594849613015 0.392154590413278 -0.333390897843185
-0.894472483431102 0.3596396685341948 -0.2656657396075203
-0.9231273954184506 0.3222871663845949 -0.2096826035028543
-0.9468165536792051 0.2777974366562612 -0.1623791792879952
-0.9664972862688425 0.2250276652835737 -0.1234728532592746
-0.9815999679984307 0.1661861292346523 -0.09404080643785716
-0.9913941670216329 0.1076588297367534 -0.07447940638320624
-0.9967693288534719 0.05017908591225324 -0.06271335100287091
-0.998320759756443 -0.006868916406747688 -0.0575193760981004
-0.9962507218138995 -0.06373775198488069 -0.05849784831254263
-0.9905523565781971 -0.1204167877016079 -0.06561879393135404
-0.9809864445056533 -0.1771748153083838 -0.07921288100174273
-0.9668756260032014 -0.2346617628010737 -0.1004259972318388
-0.9472891980185058 -0.2922288159450852 -0.1313221019051597
-0.9232448800256531 -0.3436647188195905 -0.1717947977823208
-0.8953589536943795 -0.3868308195205148 -0.2206677618239517
-0.8624699656800704 -0.4229675716151472 -0.2779280332420655
-0.8206866809048381 -0.4544814365344929 -0.3462946659002181
-0.7772156213143312 -0.4651071133769001 -0.423805676072401
-0.7223697797452853 -0.4651952474229656 -0.5116397981840672
0 0 0
0 0 0
0 0 0
0 0 0
0 0 0
0 0 0
0 0 0
0 0 0
0 0 0
0 0 0
0 0 0
0 0 0
0 0 0
0 0 0
0 0 0
0 0 0
-0.6648086531075615 0.4960734199844115 -0.5585164426749484
-0.7155263045335269 0.5302299289701791 -0.4548387955582424
-0.7942529019029279 0.4942618063996205 -0.3533660914028983
-0.8428963539109838 0.4662467309097848 -0.2685883885790815
-0.8787826690774851 0.4348951968704928 -0.1964871198527415
-0.9087806788118415 0.394875406968042 -0.1348743518616908
-0.9333500523749427 0.3490431172580106 -0.08382471011880435
-0.953718867113748 0.2977888329712481 -0.04173887239601238
-0.97043613102737 0.2412286422414983 -0.007903022140403063
-0.9833810869925892 0.1806960206426123 0.01762344657544993
-0.9922999514157922 0.118787727338082 0.03507537959978883
-0.9973480945138786 0.05673043568135454 0.04558986770037925
-0.9987301250009494 -0.005175482350837399 0.05011338940865462
-0.9965540351112655 -0.06685352710520141 0.04909848283855434
-0.9908297900381955 -0.1282344294029312 0.04257062706337875
-0.9814650554198936 -0.189258525883906 0.03012565965875653
-0.9682708933659095 -0.2496670800037976 0.01085477879830498
-0.9511415857597912 -0.3083204473570424 -0.01637637261124014
-0.9304395575916048 -0.3627596503203415 -0.0518427021691729
-0.9062703894065036 -0.4117882934066552 -0.09541688895692586
-0.8779237475187024 -0.455454801169335 -0.147684859191856
-0.8439316545420876 -0.4935633951979854 -0.2101773950321279
-0.8037241745478315 -0.5234054989895651 -0.2829737353092868
-0.7498791448942494 -0.5501011415065892 -0.3675187099534067
-0.6642378333131432 -0.5846076742242061 -0.4658561666798292
-0.6085176364185472 -0.5502418300481688 -0.5717868611928981
0 0 0
0 0 0
0 0 0
0 0 0
0 0 0
0 0 0
0 0 0
0 0 0
0 0 0
0 0 0
0 0 0
0 0 0
0 0 0
-0.643510090172022 0.5430373217596611 -0.5394490068791392
-0.7058648514130188 0.5652972529851142 -0.4268416888111561
-0.7564792515429565 0.5691793845779868 -0.3221396749182445
-0.8073644324262512 0.5449408515791184 -0.2262789020948743
-0.8472329036940371 0.5107778280411421 -0.1459534764222591
-0.8789381111149355 0.4703082687415342 -0.07923338427108416
-0.9054447899545518 0.4237993714919944 -0.02374500088749998
-0.9278673918880043 0.3722680611315036 0.02187678523785554
-0.9468382732867935 0.3162496489649606 0.05902070627179728
-0.9625731677688792 0.2561471886323151 0.08855232604028913
-0.9749490460804591 0.192832751938377 0.1108597642369605
-0.9837355900577238 0.127662997087881 0.1263584109915953
-0.9888189533244852 0.06168316926519347 0.1357654749031225
-0.9901776584501197 -0.004497877113656006 0.1397425268402855
-0.9878271767570211 -0.07050390511969183 0.1386602618745747
-0.9817994159813342 -0.1360232316121343 0.1325427751350562
-0.9721436670116588 -0.200697769826067 0.1210664936139128
-0.9589514992923018 -0.2639641767963473 0.1036095332161694
-0.9424146311615779 -0.3248647705521566 0.0794829782197497
-0.9228277409356795 -0.3821738537437057 0.04829188414458429
-0.900294395926738 -0.4351735690699013 0.00969357755800737
-0.8744800251629543 -0.4836388058723655 -0.03712399554668419
-0.8445562759654004 -0.5272362673426287 -0.09352334000700603
-0.8091603703686782 -0.5651393579849201 -0.1608632993607158
-0.7649209789051884 -0.5972048533997659 -0.2413343305592721
-0.7087003011168497 -0.6199568775994103 -0.3367452347310586
-0.6527447677886772 -0.6153849662747028 -0.4418434240854875
-0.585188760460093 -0.5920051965604418 -0.5541515694073345
0 0 0
0 0 0
0 0 0
0 0 0
0 0 0
0 0 0
0 0 0
0 0 0
0 0 0
0 0 0
0 0 0
-0.6011173594187058 0.589143383711787 -0.5399703636627735
-0.6688713625215944 0.6153980017683709 -0.4170088725890628
-0.7214900221653908 0.6220262869336969 -0.3041963942574952
-0.7648566461980284 0.6111852519221184 -0.2035851138949018
-0.8038069708241108 0.5835603627635101 -0.1155493689549473
-0.8371880302718767 0.5453145993305542 -0.04181135882091969
-0.8657928888531216 0.5000409247236841 0.01901965333144614
-0.8907313971228475 0.4492534600633363 0.06905727188862652
-0.9125845074263885 0.3938149078377294 0.10999697800438
-0.9315545716090033 0.3342251242500054 0.1431769759229251
-0.947567776803348 0.2709076028562605 0.1694826807630627
-0.9603597527482163 0.2045091873893884 0.1894337287145993
-0.9696019455960446 0.1359393497542534 0.2034516165695294
-0.9750274414228625 0.06610026705991581 0.2120194405402335
-0.9764770794191205 -0.004256929013410489 0.2155792010479647
-0.9739003504517694 -0.07450914001570888 0.2143979837685968
-0.9673497075326188 -0.1440833021548953 0.2085055044278142
-0.9569812428074344 -0.2123786622021325 0.1976921970032457
-0.9430589938459097 -0.2786967658278164 0.1815705010277128
-0.9259455085055227 -0.3422278701305076 0.1597028496439086
-0.906031990020527 -0.4021940324650564 0.1317041886537396
-0.8835801064433987 -0.4581057935749189 0.09708386781832284
-0.8585840842981682 -0.5097167363380117 0.05497471133894963
-0.830688694881894 -0.5567225483982088 0.004036867649390676
-0.7990861455353104 -0.5984668271677338 -0.05743508329675796
-0.762357219876001 -0.6336464866456457 -0.1315431460189531
-0.7194332677872953 -0.6588943776853528 -0.2197133866097485
-0.6714507499333898 -0.6681942220780885 -0.3204221777520179
-0.6133859882222787 -0.6606110137437374 -0.4328402915314719
-0.5399306468454608 -0.6332215418911259 -0.5545316722082396
0 0 0
0 0 0
0 0 0
0 0 0
0 0 0
0 0 0
0 0 0
0 0 0
0 0 0
-0.558203658395632 0.61341674276264 -0.5586846833878704
-0.622617339529025 0.6557139459015935 -0.4270677577012345
-0.674749013389028 0.6723834627938459 -0.3043258909325486
-0.7176286781042888 0.668420357912059 -0.1955078143988253
-0.7542709470541761 0.6486843407077667 -0.1014098838897168
-0.7871402270872246 0.6164090198036347 -0.02121752119815126
-0.8168732584114884 0.5749994435994473 0.04575718033842251
-0.8439052498746685 0.526879634035701 0.1011028212879259
-0.8685597728150795 0.4733796028775917 0.1466822164642678
-0.8909088561295706 0.4152067048050992 0.1840782506294293
-0.9107929052986939 0.3527785545128588 0.2144844403060087
-0.9278771834607252 0.2864769523687131 0.2386941310014244
-0.9417170320600649 0.2168436022110418 0.2571923088043686
-0.9518445658404993 0.1446331574029289 0.270320499147901
-0.9578607714231758 0.07071544496732793 0.278391933093742
-0.9594995276736715 -0.004027208055786887 0.281681447719362
-0.9566579427222422 -0.07873893722750375 0.2803671885059476
-0.9494069290585718 -0.1525860197270562 0.2744885965562607
-0.937989206607128 -0.2247418985131245 0.2639456901357665
-0.922803412949064 -0.2943880085889546 0.2485348294476813
-0.9043611099214445 -0.3607573374006168 0.2280024701034401
-0.8832047963893306 -0.4232330475308961 0.2020472101084063
-0.859797238123153 -0.4814347861788539 0.1702035721502887
-0.8344273714070332 -0.5351567189428602 0.131674781249338
-0.807142141814 -0.5841703099789665 0.08524442414015301
-0.7776853624945591 -0.6279708310668904 0.02929355374249426
-0.7454726529170035 -0.6654477077221502 -0.03807718529802066
-0.7097572510170527 -0.6944086010210198 -0.1184961579830581
-0.669577213069792 -0.711644581675519 -0.2126695678971606
-0.6220863967061357 -0.713994414882933 -0.3212794586480028
-0.564230505343631 -0.6964246423824264 -0.4434373172413206
-0.4939761847366453 -0.653059142965314 -0.5740220245795773
0 0 0
0 0 0
0 0 0
0 0 0
0 0 0
0 0 0
0 0 0
0 0 0
-0.5906595456976843 0.6683398205776534 -0.452153939832923
-0.6255927512075774 0.7106766978940532 -0.3218265692992706
-0.6641051333336799 0.7193548249437881 -0.2036983252507152
-0.6992924264703113 0.7075942267186645 -0.1014914409971559
-0.7311945974922999 0.6820099743905158 -0.01472601201687037
-0.7608939670974216 0.6462497067841969 0.05832398576989354
-0.7889859480727582 0.6027007363593204 0.1193859126348796
-0.8156770351001753 0.5528939805717472 0.1702328424767529
-0.840915914713836 0.4976904127363569 0.2125198283720993
-0.8644397409330801 0.437542137260117 0.2475900087188442
-0.885813363257753 0.3727323224947622 0.2764150886649426
-0.9044739310771921 0.3035734243400609 0.299616561685464
-0.9197870222765717 0.2305533654934828 0.3175483889287195
-0.9311211769213952 0.15439500856941 0.3304172138635739
-0.9379347006160457 0.07602189171990539 0.3383772589279829
-0.9398523981303303 -0.003515243942277139 0.3415627508799708
-0.9367184757573042 -0.08310690275798122 0.3400760795599827
-0.9286205675298742 -0.1616382487221282 0.3339714330755505
-0.9158859561418294 -0.2380382095347073 0.3232502531223713
-0.8990470811525371 -0.311334929988152 0.3078715758889983
-0.8787763498351442 -0.3807235791836134 0.2877528161878498
-0.8557943109113718 -0.4456325179867789 0.262731338679825
-0.8307723261513565 -0.5057446539897564 0.2324643780492936
-0.8042519838051891 -0.560927869327036 0.1963126892425671
-0.7765862818932417 -0.6110847069780139 0.1532619576829971
-0.7478875809445987 -0.6559558498212195 0.1019121648978055
-0.7179787268086405 -0.6948831288363504 0.04054608623340286
-0.6863393968942433 -0.7265475031294303 -0.03266432254365915
-0.6519755068659372 -0.7487671299425446 -0.1194810594383399
-0.6133533624044162 -0.7580679099560522 -0.2216544534225715
-0.5702116066492803 -0.7478911717764765 -0.3398786825048825
-0.5303383542904895 -0.7045429767019959 -0.4715510830740878
0 0 0
0 0 0
0 0 0
0 0 0
0 0 0
0 0 0
0 0 0
-0.4710315887137029 0.7266784728338365 -0.500067634979237
-0.5550338994525276 0.7526691400921522 -0.3541560898974642
-0.6016948967597519 0.7658723284232398 -0.2267219172661437
-0.637893037275018 0.7613614598905629 -0.1158499045720916
-0.669591269317257 0.7424229494065966 -0.02134704308596972
-0.6990156811613364 0.7127240154554669 0.05832285387039655
-0.7273198746714328 0.6747586034937196 0.1253260823577263
-0.7550101343279159 0.6300279727424299 0.1817263069129111
-0.7821496763887674 0.579360588810942 0.2293102524039957
-0.808497911609928 0.5231476755312049 0.2695322550432164
-0.8335923996478315 0.4615467214768103 0.3034770751529297
-0.8567998091291923 0.3946635914569082 0.3318655400226324
-0.8773612864804908 0.3227110754782876 0.3550982043730219
-0.894448788325421 0.246133453644083 0.373335891738822
-0.9072441847821829 0.1656730390054827 0.3866011294934344
-0.9150365153313096 0.08236661496769128 0.3948720252804663
-0.9173210699695717 -0.002514888483484668 0.3981403394857082
-0.9138771107510345 -0.08755917550895215 0.3964366497052626
-0.9048087999706659 -0.1713218848646442 0.3898331018039239
-0.8905384027307504 -0.2524403488455108 0.3784378727565731
-0.8717529278563757 -0.3297415076973094 0.3623773873675636
-0.8493118226244259 -0.4023292918092171 0.3417609821244499
-0.824136730617953 -0.4696330869437279 0.3166124016744379
-0.797105792087358 -0.5313962601758523 0.2867758199219432
-0.7689724108708706 -0.5875964311533963 0.2518171269299056
-0.7403059121293755 -0.6383145371019628 0.2109542798584562
-0.7114412329959616 -0.6835750594654931 0.1630230353966349
-0.6824154117761405 -0.723166697345402 0.1064853681072837
-0.6528702394870182 -0.7564402708109533 0.03947869156411094
-0.6218964172858965 -0.7820715270227016 -0.04011200303331951
-0.5878348977790918 -0.7977269541876917 -0.1344687306234141
-0.5479388444482036 -0.7998122289335314 -0.2450783980548736
-0.4959155421559287 -0.784771019148223 -0.3717555951875508
-0.4049402720604548 -0.7563389413659916 -0.5137847621689217
0 0 0
0 0 0
0 0 0
0 0 0
0 0 0
-0.3958346188147824 0.7256995778889997 -0.5627389067760313
-0.4696207927969058 0.7807332239743675 -0.4122037650912412
-0.5273501717836131 0.8056115532195963 -0.2699848544620654
-0.5687961029224616 0.8092896522113373 -0.1467012342275022
-0.6020595028893955 0.7973375302864747 -0.04215706082305023
-0.6316579369509964 0.7738978315208801 0.04572086016349187
-0.6598307799163217 0.7418423942095318 0.1195541886697728
-0.6876611926634973 0.7028673820223778 0.1819327551421801
-0.7155661468482113 0.657807063800155 0.2350637281662623
-0.7435255292128656 0.6069498748555648 0.2806806669892703
-0.7712068041689566 0.5502762943315278 0.3200563467582946
-0.7980354178061039 0.4876431888448486 0.3540389700305095
-0.8232392550557023 0.4189429378402571 0.3830978253254723
-0.8458898720126843 0.3442494839340904 0.4073850969751794
-0.8649621419432976 0.2639445579837507 0.4268181853150407
-0.8794244263673305 0.1788032005747772 0.4411826081938259
-0.8883600402794911 0.09001493432142976 0.4502374378411118
-0.8911001775029582 -0.000869439906523535 0.4538058150006946
-0.887338997043844 -0.09206135578651022 0.4518342739279234
-0.8771966989980052 -0.1817080057829417 0.4444188923767627
-0.8612114988352725 -0.2680837365160234 0.4317937754177451
-0.8402588593679812 -0.3497589532418227 0.4142870066521554
-0.8154223589111862 -0.4257127786542325 0.3922435553048749
-0.7878487078237724 -0.4953696395405815 0.3659280445686632
-0.7586219885760527 -0.5585585685066459 0.3354176560599065
-0.7286719070306826 -0.6154115620559665 0.3005093362810923
-0.6987157858265565 -0.6662271492874077 0.2606484916303013
-0.6692134529610424 -0.7113215847623741 0.2148835904090924
-0.6403142935558559 -0.7508711754776151 0.1618335048898389
-0.6117682120403009 -0.784733018571617 0.09966817094986324
-0.5827782773605387 -0.8122116129821192 0.02611082483696376
-0.5517517699819238 -0.8317416190926555 -0.06144805441135941
-0.5158274143901767 -0.8405434665871817 -0.1655559100157638
-0.4698621791981838 -0.8344407236612 -0.2879899499199686
-0.4054996957664862 -0.8075979029781405 -0.4282004481999014
-0.3246270997915406 -0.750696757616828 -0.5753882377877688
0 0 0
0 0 0
0 0 0
0 0 0
-0.4217557263158545 0.7660110280910537 -0.4851280368754955
-0.4578828129930042 0.8235104946873171 -0.3349235654675006
-0.4966799869834665 0.8451286191486674 -0.1976527450504274
-0.5302693429328917 0.844058731958225 -0.07987040096676623
-0.5598740021149251 0.8283627023930323 0.0188768387164951
-0.5875946212548238 0.8027792005304276 0.1013810449153436
-0.6148737122489839 0.7699047270681292 0.1708128485310824
-0.6424884042793114 0.7309628641554033 0.2300042208142113
-0.6707255978120269 0.6863278477134391 0.2812139006036807
-0.6995077899846446 0.6358806655974808 0.3261052450821706
-0.7284635760714618 0.5792504311507659 0.3658001590333562
-0.7569640612268559 0.51599384067321 0.4009435950333342
-0.7841440365704544 0.4457529943996338 0.4317666011802593
-0.8089303132235313 0.3684112928814408 0.4581537598072335
-0.8300981481696149 0.2842451079398507 0.4797309485718405
-0.846375035675108 0.1940469900714706 0.4959788953475355
-0.8565938162465114 0.0991834833544621 0.5063691050981608
-0.8598766098020882 0.001550995806827249 0.5104995693703116
-0.8558030590744414 -0.09658600811954102 0.5082049459758919
-0.8445095596459169 -0.1928546422062498 0.4996105389662614
-0.8266782118214676 -0.2850690736635671 0.4851172614330021
-0.803418638283187 -0.3714818909100198 0.4653167699375396
-0.7760816740505473 -0.4509294343952703 0.440862654801766
-0.746065489348254 -0.5228526562777581 0.4123243691886788
-0.7146574918724465 -0.5872147489845914 0.3800572429063109
-0.6829339228691577 -0.6443570786337099 0.3441005844359665
-0.6517064040380131 -0.6948350897266778 0.304110113314834
-0.6214962518587663 -0.7392576943258248 0.2593076749839265
-0.5925063448760415 -0.778132384959061 0.2084375752103171
-0.5645703426159961 -0.8116928915459497 0.1497163252695949
-0.537055375152429 -0.8396687345202319 0.08079566998964507
-0.5087087789499956 -0.8609378248611814 -0.001199976042197366
-0.4774751133105384 -0.8730028387267386 -0.0994160939895757
-0.4405867256416458 -0.8712030641304116 -0.2165376600920822
-0.396463310264613 -0.8474944924113053 -0.3529446542257416
-0.3541565036720293 -0.7884584776160983 -0.5028980015690138
0 0 0
0 0 0
0 0 0
-0.3056743903817699 0.7590101919574818 -0.5748623274918957
-0.383790739441032 0.8247479747627535 -0.4153257112725406
-0.4255181056170539 0.8646412499556851 -0.2670764884207207
-0.4579075511635319 0.8785757210622142 -0.1357401081015747
-0.4861915062422002 0.873521940392991 -0.02402579676105615
-0.5125552239072226 0.8558477841290725 0.06936651098889826
-0.5384273686453048 0.829656472520907 0.1475334073959439
-0.5647214337657319 0.7971062866183903 0.2138019412423932
-0.5919359835660752 0.7590399616442204 0.271053736345402
-0.6202399491060312 0.7154889067803241 0.3215245399767237
-0.6495229372586833 0.6660142949132744 0.3668036435833563
-0.6794128597008281 0.6099356159122455 0.4078930135646993
-0.7092714760219965 0.5465047075316605 0.4452713531626663
-0.7381840848783627 0.4750704445401651 0.4789491930849276
-0.764962621190899 0.3952597594683365 0.5085291640857792
-0.7881899186789225 0.307176076125421 0.5332912059551538
-0.8063301426506604 0.211586822323959 0.5523248298527004
-0.8179198077503504 0.1100424961839867 0.5647104011112477
-0.8218177036078196 0.004856756167428584 0.5697298254052525
-0.8174524601958977 -0.1011022149472129 0.5670536283742844
-0.8049746160384411 -0.2047912265924892 0.5568450601778807
-0.7852452779773845 -0.3034390253262653 0.539735686538574
-0.759659909201768 -0.3949137312378759 0.5166816885001244
-0.7298828142086303 -0.4779079244919042 0.4887484969089214
-0.69758376820048 -0.5519276977432969 0.4568946298732371
-0.6642453352413865 -0.6171417679847125 0.4217987349658134
-0.6310558859193689 -0.6741690389966134 0.3837506686703002
-0.598874973104493 -0.7238651514483279 0.3425901474178467
-0.5682347844856688 -0.7671376847920178 0.2976726428015642
-0.53935051698175 -0.8047855977522282 0.2478329305845112
-0.5121108417506313 -0.8373361942418068 0.1913389233117672
-0.4860366390045172 -0.8648304239424063 0.1258440438351757
-0.4601959587996668 -0.8864970176810345 0.04840162339308596
-0.4330956976351461 -0.900257576302646 -0.04432169897026628
-0.4026110858236766 -0.9020922760620882 -0.1553506969440455
-0.3659291326380813 -0.8856697999922656 -0.2858056599656502
-0.3177232976515381 -0.8438092082576395 -0.4324788158847173
-0.231954928916399 -0.7756657210113802 -0.5869749570461106
0 0 0
0 0 0
-0.3332203343839641 0.7891233227062734 -0.5159928200217994
-0.3611584817937453 0.8616928914614201 -0.356440614735882
-0.3886730872850241 0.8970193475617837 -0.2104507574710994
-0.4136956534494871 0.9065196369987674 -0.08413117170599956
-0.4373338804350316 0.8990253107599123 0.02219386484323589
-0.4606927283293222 0.8805906483816909 0.1110059459992921
-0.4845888375773929 0.8547876680761028 0.1857732515740859
-0.5095590407966636 0.8233500996620861 0.2498883697350006
-0.5359037151897625 0.7867953358445517 0.3062030495260755
-0.5637161471353833 0.7448802864686115 0.3568997958661186
-0.5928856653026211 0.6969010916292807 0.4035039731707539
-0.6230752415167939 0.6418936454131134 0.4469337662193946
-0.653681859178008 0.5787945074276831 0.4875417368319638
-0.6837904831486138 0.5066109753357561 0.5251436896933432
-0.7121438158124006 0.4246337788977268 0.5590503907691949
-0.7371591432958838 0.3327005647589498 0.5881383609868973
-0.7570345492385105 0.2314790658013948 0.6109960174624366
-0.7699733655246026 0.1226875279923767 0.6261699344889019
-0.7745170579281628 0.009129441709121666 0.6324871384244757
-0.7699001345599412 -0.1055648284983101 0.6293725842366398
-0.7562841507820157 -0.2174881359461706 0.6170358125737798
-0.7347448620788815 -0.323128278029136 0.5964378455351491
-0.7070155415021071 -0.4199014484198407 0.5690446359376401
-0.6751089113488342 -0.5063789374591979 0.5364777064474209
-0.6409710189048284 -0.5822113973635253 0.5001860071054735
-0.6062517499074831 -0.6478687146277878 0.4612211447241464
-0.5722069967835959 -0.7043269161640882 0.4201223012393924
-0.539692307445869 -0.7527894842271776 0.3768822173049994
-0.5092052179580902 -0.7944722038166991 0.3309440486953807
-0.4809324082261196 -0.8304410080593264 0.2811969965188712
-0.4547816494469681 -0.861464357467473 0.225948693599782
-0.4303790285977213 -0.8878297452535188 0.1628871854577681
-0.4070318161304407 -0.9090603478282143 0.08907516300294011
-0.3836622730565255 -0.9234728343902759 0.001088290535318861
-0.3587655926284258 -0.9275585899573187 -0.1045098643304276
-0.3305182775711104 -0.9153210831119172 -0.230097768355654
-0.2974779326792795 -0.8779049639502938 -0.3752196074837971
-0.2629071078418794 -0.803556174228658 -0.5340199692007974
0 0 0
0 0 0
-0.3140538991613979 0.829427404880318 -0.4619743807344978
-0.3267694354781718 0.8948964809872112 -0.3039441138663193
-0.3449105209370002 0.924492901044806 -0.1623256247938841
-0.3642015998312338 0.9304043328343494 -0.04129130808582126
-0.3839856292140946 0.9213783547022201 0.06014120087997189
-0.4045388218641074 0.9029346766644669 0.1451113754384326
-0.4262482006110112 0.8781233581426329 0.2172828556517513
-0.4494174193532938 0.8482929046586497 0.2800413024673609
-0.4742362125086518 0.8136844131264197 0.3361810384012784
-0.5007725353465706 0.7738294880853614 0.3878334580875075
-0.5289491264110614 0.7277987799177013 0.4364879810708194
-0.5584986035160057 0.6743649164861001 0.483023052538247
-0.588897681451472 0.6121401444380723 0.5277157988429149
-0.6192898601747419 0.5397436438581221 0.5702252782887697
-0.64841499112834 0.4560434606694704 0.6095755582867862
-0.6745860705629859 0.3604967829773342 0.644186077826417
-0.6957699277110444 0.2535623225483391 0.672019610038918
-0.7098329741890139 0.1370765637361045 0.6909031512652694
-0.7149612039592079 0.01439657847464825 0.699015890635844
-0.7101560446263993 -0.1099001559929723 0.6954137962345205
-0.695582258858144 -0.2308041099710185 0.6803637144809291
-0.6725589014603944 -0.3438804254733137 0.6552944201217338
-0.6431882539548616 -0.4460355006199157 0.6223834848075879
-0.6098368210564405 -0.5357750348029389 0.5839898661498193
-0.5746938314987217 -0.6130080623890425 0.5421698216272739
-0.5395203964456026 -0.6786210720473984 0.4983885857364906
-0.5055746356882521 -0.7340320490257338 0.4534217007949367
-0.47365199749944 -0.7808355620325796 0.4073691327654259
-0.4441685653491392 -0.820562624800692 0.3597099725277094
-0.417246901608043 -0.8545247982960164 0.3093418694513237
-0.3927738685129809 -0.8836934599088739 0.2545870325205716
-0.3704259465238704 -0.9085544721297358 0.1931667396705525
-0.349655231088573 -0.9288767291846605 0.1221852746921772
-0.3296580047083901 -0.9433271578596112 0.03820305192246596
-0.30938583743248 -0.9488840192262353 -0.06244615002758746
-0.2878208504746418 -0.9400636957513062 -0.1828644469612633
-0.2651610645138823 -0.9081225214625795 -0.3240418119291259
-0.2466664738676822 -0.8406027651871776 -0.4822267535396125
0 0 0
0 0 0
-0.2647117897275944 0.8700171361299612 -0.4159301037667667
-0.2772767554648028 0.9250545954934668 -0.2595989141643888
-0.2929878738754382 0.9482087298493196 -0.1227123074491294
-0.3093558728806217 0.9509231928078754 -0.006635155939706484
-0.3263412496926287 0.9408986278434434 0.09061545602918954
-0.344301197083917 0.9228714732212672 0.172525156429401
-0.3635638302196149 0.899366008294078 0.2428211779915804
-0.3843706477989619 0.871392510594983 0.3048512712612138
-0.4068846543017 0.838965606113443 0.3613607475259156
-0.4311895456899882 0.8014361248544649 0.4144583374308197
-0.4572656009177263 0.7576865759414403 0.4656385109239636
-0.4849386405544795 0.7062510365848205 0.5157945213164242
-0.5138031745615971 0.6454204605204071 0.5651891072482288
-0.5431219641282218 0.5733940714161928 0.6133822388578463
-0.5717193136930601 0.4885397696916095 0.6591402883908742
-0.5979068049236365 0.3898118418524381 0.700395731410192
-0.6195175644081357 0.2773211530278651 0.7343643274786067
-0.63414265741025 0.1529315656247394 0.7579413079442442
-0.6396264091244079 0.02059068917463831 0.768410099016097
-0.6347197222814353 -0.1139817202804529 0.7642898936849065
-0.619580061705108 -0.2444032896274226 0.7459139220826944
-0.5957676671960378 -0.3651255318006388 0.7153630076758871
-0.5657337996726507 -0.472515071606094 0.6757771637256117
-0.5321373990471678 -0.5651098728965431 0.6304606411903663
-0.4973214100204258 -0.6432195464525552 0.5821855633701887
-0.4630606474244198 -0.7082687708564602 0.53285099703046
-0.4305354123492962 -0.7621904919805723 0.4834303596668643
-0.4004218842228912 -0.8069972961647474 0.4340710524996753
-0.3730194666507446 -0.8445280229436046 0.384225058998707
-0.3483597985777153 -0.8763131774457192 0.3327471499049696
-0.3262827629308486 -0.9034888032959779 0.2779344184029976
-0.3064665868015707 -0.9266952085248925 0.2175183249089619
-0.2884191982822534 -0.9458964977895513 0.1486411165582492
-0.2714330679198644 -0.9600598001268816 0.06789160345684679
-0.2545476785822754 -0.9666410518217536 -0.02847026977932871
-0.2366502989045248 -0.9608808546037234 -0.1438909979269597
-0.2171951974999292 -0.9350178634305782 -0.280299556276285
-0.1993157346409379 -0.8773591085948281 -0.4364793608983488
0 0 0
-0.09757317887244515 0.8304017424042055 -0.548554847737931
-0.1834916095776818 0.9065529569753231 -0.3801217770845135
-0.2161106269638038 0.9498247416778548 -0.2261175734212345
-0.2350299153879311 0.9675525172589259 -0.09275271003403206
-0.2503354402133576 0.9679582829333755 0.01972130507484272
-0.2650950545971051 0.9574650172043597 0.1139532924404209
-0.2804407450237588 0.94012071112179 0.1937163830200699
-0.2968798991282456 0.9180349910801894 0.2628194830030655
-0.3146886705445003 0.8919629865710358 0.3246121858744867