# OOMMF: rectangular mesh v1.0
# Segment count: 1
# Begin: Segment
# Begin: Header
# Title: 
# Desc: time = 9.999999999999999e-11
# Desc: stepsize = 9.750744642878886e-14
# Desc: step = 638
# meshunit: m
# valueunit: (none)
# valuemultiplier: 384000.0000000001
# xmin: 0
# ymin: 0
# zmin: 0
# xmax: 9.357999999999999e-08
# ymax: 9.357999999999999e-08
# zmax: 2.3395e-08
# ValueRangeMaxMag: 1
# ValueRangeMinMag: 0
# meshtype: rectangular
# xbase: 1.16975e-09
# ybase: 1.16975e-09
# zbase: 1.16975e-09
# xstepsize: 2.3395e-09
# ystepsize: 2.3395e-09
# zstepsize: 2.3395e-09
# xnodes: 40
# ynodes: 40
# znodes: 10
# End: Header
# Begin: Data Text
0 0 0
0 0 0
0 0 0
0 0 0
0 0 0
0 0 0
0 0 0
0 0 0
0 0 0
0 0 0
0 0 0
0 0 0
0 0 0
0 0 0
0 0 0
0 0 0
-0.8234536392918296 0.07165065168943534 -0.562841263634357
-0.8366675951324208 0.09263175309115591 -0.5398209828958024
-0.8518882456837226 0.07478964611441705 -0.5183559835672674
-0.8626127083094557 0.04041546619701945 -0.5042478612300728
-0.8666912044514801 0.0007373020099334072 -0.4988444772794305
-0.8639479198560308 -0.03561705687752212 -0.5023200344758506
-0.8560223976650777 -0.05745966627196848 -0.513735380762942
-0.8482027399019172 -0.04252038111659939 -0.527962242222471
0 0 0
0 0 0
0 0 0
0 0 0
0 0 0
0 0 0
0 0 0
0 0 0
0 0 0
0 0 0
0 0 0
0 0 0
0 0 0
0 0 0
0 0 0
0 0 0
0 0 0
0 0 0
0 0 0
0 0 0
0 0 0
0 0 0
0 0 0
0 0 0
0 0 0
0 0 0
0 0 0
0 0 0
-0.7456387871012573 0.2684574479596658 -0.6098798224282784
-0.7769310521850068 0.3036870167954355 -0.551500077951569
-0.819026471280896 0.2908037824517175 -0.4945996355163809
-0.8617607754653738 0.2458658238486958 -0.4437548450806131
-0.9009577570219797 0.1660974058663028 -0.4008575455525406
-0.9188671333458919 0.1272282410303551 -0.3734918552539321
-0.9315529535502064 0.08939829718079982 -0.3524443774456609
-0.9398288644212358 0.0469126053858744 -0.3384093867737695
-0.9431506787106168 0.001857141996767103 -0.3323602687917222
-0.9414663842128854 -0.0423777038733821 -0.3344326204357689
-0.935267954074248 -0.08363957495301877 -0.3439160879974185
-0.9241072381252867 -0.1272355727399268 -0.3603289073527083
-0.894960049852913 -0.2110806005482169 -0.3930540538392587
-0.8606304841941862 -0.2640671045789416 -0.435412142636117
-0.825557769286427 -0.287840777810844 -0.4853885620820358
-0.7989708883261045 -0.2660688490781271 -0.5393077851817415
0 0 0
0 0 0
0 0 0
0 0 0
0 0 0
0 0 0
0 0 0
0 0 0
0 0 0
0 0 0
0 0 0
0 0 0
0 0 0
0 0 0
0 0 0
0 0 0
0 0 0
0 0 0
0 0 0
0 0 0
0 0 0
0 0 0
-0.7115551443361477 0.3515908773844719 -0.608336363789623
-0.7530333528541716 0.3869859363152553 -0.5321490905595995
-0.8145795666337677 0.3552772354683806 -0.4585174103354063
-0.8532021012543897 0.3392025210495603 -0.3962168902617806
-0.8880352369600454 0.3102366080189689 -0.339332675942356
-0.9198281656972299 0.2647571326496549 -0.2895165043675431
-0.9461712514923198 0.2061242030344409 -0.2495451377464065
-0.9628541417726731 0.1544503240672317 -0.2214881465603421
-0.973921321637884 0.1048832077401151 -0.2011883992512011
-0.9807163669200227 0.05438140322918099 -0.1877180615657852
-0.9834384455273487 0.002738082837641423 -0.1812217612791727
-0.982099127810149 -0.04931716519190756 -0.1817941703465161
-0.9765796406086297 -0.101952204078476 -0.1894675529800812
-0.9658413544190395 -0.1580853900096418 -0.2053277564273622
-0.9465213335606628 -0.2223921574062859 -0.2337500661790743
-0.9215655484296517 -0.2757431410250349 -0.2732812838911629
-0.8931637084494618 -0.3147629174656 -0.321220945296766
-0.8608255317426663 -0.3428014974376716 -0.3761203760160373
-0.8082662614170399 -0.3864901345141094 -0.4442195702332198
-0.7717263060632202 -0.3676450064944021 -0.5189177754998833
0 0 0
0 0 0
0 0 0
0 0 0
0 0 0
0 0 0
0 0 0
0 0 0
0 0 0
0 0 0
0 0 0
0 0 0
0 0 0
0 0 0
0 0 0
0 0 0
0 0 0
0 0 0
0 0 0
-0.714697471503536 0.4271182067624515 -0.5538750415738911
-0.770996772236209 0.434123485685127 -0.4659407434190984
-0.8152873972163575 0.4309475110237435 -0.3867695731086106
-0.8581835316522248 0.4054225163372333 -0.3148866609554933
-0.8920268025456772 0.3742006768189749 -0.2534995798977893
-0.9208074022345085 0.3348544664043343 -0.1999655328280452
-0.9456695992549526 0.2861934612194251 -0.154279978611036
-0.965942370547204 0.2304485921738523 -0.1176808529317176
-0.9805540690536262 0.1740791285874661 -0.09061001408566451
-0.9904859124458976 0.1178194486964834 -0.07110720606994464
-0.9964438912362819 0.06105069845210644 -0.05807222947679802
-0.9986809920003155 0.003538015670469177 -0.05122263818255347
-0.9972198139183341 -0.05466782974223555 -0.05063665786716515
-0.9918839231958642 -0.1137807887669472 -0.05674693835927753
-0.9821272102499927 -0.1743933483891165 -0.07080326916321265
-0.9671464946340567 -0.2358135321408781 -0.09497176410017227
-0.9477005389233248 -0.2918546491663607 -0.1291686969990015
-0.9243626668147528 -0.3403892759796922 -0.1723043847298695
-0.8961835853038111 -0.3826579577014234 -0.2245615034679399
-0.8597558957463582 -0.4210471670730718 -0.2890312834783062
-0.8213309163842416 -0.4395837300070916 -0.363567971780345
-0.7721372410652885 -0.4483574018253818 -0.4503106940640838
0 0 0
0 0 0
0 0 0
0 0 0
0 0 0
0 0 0
0 0 0
0 0 0
0 0 0
0 0 0
0 0 0
0 0 0
0 0 0
0 0 0
0 0 0
0 0 0
-0.6013111141843314 0.5034519718606933 -0.6204522995267057
-0.6571720048333315 0.5482371240185062 -0.5172630007174841
-0.7451497656545555 0.520719680121327 -0.4166567429903224
-0.8001285415568492 0.5011661880266768 -0.3295857535830669
-0.8411695559717534 0.4776985017830086 -0.253452006306029
-0.8759921349688644 0.444731574618937 -0.1866858484450576
-0.9050609311557372 0.4050659847748208 -0.1295617955800014
-0.9298286192124537 0.3590377312026892 -0.08068857704958306
-0.9509799656125782 0.3067167515570063 -0.0395213779847869
-0.9683795005256716 0.249403283674433 -0.006256600839153172
-0.9816576745658775 0.1896805152465415 0.01922269756614968
-0.990948452694961 0.1287702561012396 0.03793923095007541
-0.9964639196806337 0.06698293401917196 0.05072418875536792
-0.9983116984047152 0.00442709698326911 0.05791505538798174
-0.9965009844506894 -0.05877207234858006 0.05942753150400542
-0.9909588819468984 -0.1224822647631196 0.05475937462252038
-0.9815425523608233 -0.1863663907122735 0.04291603800305777
-0.968183010659118 -0.2492124941860036 0.02268899761197593
-0.9512022178283731 -0.3085047384856613 -0.006258364824575815
-0.9307535141090394 -0.3630070509301665 -0.04386088175876778
-0.9063042279566454 -0.4127573787080425 -0.09079643555764579
-0.8766376354893144 -0.4575830208509149 -0.1487421765090667
-0.8412159301908604 -0.4948281898711963 -0.2179468313647167
-0.7933388960286628 -0.529498322518196 -0.3004079268235748
-0.7163324438157737 -0.5721199832964667 -0.3994327911548719
-0.6656929347140002 -0.5483557899982662 -0.5061213730393517
0 0 0
0 0 0
0 0 0
0 0 0
0 0 0
0 0 0
0 0 0
0 0 0
0 0 0
0 0 0
0 0 0
0 0 0
0 0 0
-0.5809601011587607 0.5420002720584338 -0.6072240656876055
-0.6494118490050923 0.575550223180206 -0.4969971740050455
-0.7057374713482676 0.5902066941759206 -0.3919064680314475
-0.7630392627977552 0.5755554948902027 -0.2941206482563772
-0.8081959918597301 0.550130892585604 -0.2101790659528987
-0.8443184078219759 0.5176047585892064 -0.1386064215639825
-0.874821334003987 0.4782338618639803 -0.07733050457708977
-0.9010428534127972 0.4330005664662527 -0.02514529287218145
-0.9238042987669119 0.3823821366117659 0.01922288167768365
-0.9434339962332827 0.3267046749706842 0.05653627245934727
-0.9598223495397323 0.2667578041884268 0.08707084028879009
-0.9726798794388583 0.2038325270677363 0.111113244233026
-0.9818306232333566 0.1389417736626778 0.1292432234690358
-0.987196019082073 0.07269959030249938 0.141981651907403
-0.9887373114932099 0.005525214367266366 0.1495593556664861
-0.9864419619781452 -0.06219279201098417 0.1518693921453074
-0.9803353676642941 -0.1299935747876182 0.1484730191666103
-0.9705092564925624 -0.1971972059964266 0.1386544085467731
-0.9571707915933731 -0.262725557508398 0.1216526084899799
-0.9406405145482546 -0.3252408935553102 0.09702465433969522
-0.9211094286302957 -0.3839394555237317 0.06440430871075421
-0.8984099294396739 -0.4385570429062097 0.02296342312375124
-0.8719374760688388 -0.4887755112356339 -0.02869734209029045
-0.8405640636882091 -0.5338374829988768 -0.09203041117688929
-0.8013282633379513 -0.5737201469838993 -0.1694644721484569
-0.7513196243338812 -0.6051734703734811 -0.2632183368363846
-0.7011248324655216 -0.6107111984929805 -0.3680432057998911
-0.6395992598137625 -0.5983632984448023 -0.4825703574816245
0 0 0
0 0 0
0 0 0
0 0 0
0 0 0
0 0 0
0 0 0
0 0 0
0 0 0
0 0 0
0 0 0
-0.5388260043858527 0.5793689801444726 -0.6115538584981132
-0.6130573339777291 0.6177562833464547 -0.4924813495373132
-0.671301160316585 0.6361794583777522 -0.3803031013491684
-0.7196617708292182 0.6362479867515245 -0.2779845948278163
-0.7633042833435015 0.6184812205561856 -0.1866749872071602
-0.8007073770058785 0.5891553035804393 -0.1084607056560376
-0.8327822415778002 0.5519883765885888 -0.04222049530438834
-0.8609191650284453 0.5085485692515229 0.01401941507170127
-0.8859290671088997 0.459673100379909 0.06188965049728661
-0.9081854387066557 0.4057775517323742 0.1026829461560155
-0.9277106337150214 0.3471638998007112 0.1372232005428917
-0.9442532038576539 0.2843456497820113 0.1659320296223758
-0.9574280962023846 0.2181192810672399 0.1890910358239835
-0.9668755741074373 0.149321291431891 0.207013951509373
-0.97232972549945 0.07869662208001542 0.219958511050059
-0.9736347806122051 0.006921499588711171 0.2280074709865142
-0.9707537686862084 -0.06532542926224369 0.2310188496058841
-0.9637812457706126 -0.1372988430261796 0.2286366943526737
-0.9529545635840001 -0.2081317955431611 0.2203605124072981
-0.9386455875424561 -0.2768395147456109 0.2056801985182125
-0.9212948251940509 -0.3424803966300081 0.1841820376551817
-0.9012678088118705 -0.4044377916011042 0.1553911500834932
-0.8787214959181952 -0.4623955980739859 0.1184856256813015
-0.8535103818344825 -0.5160530472935219 0.07217534537378516
-0.8250672585431492 -0.564841386645339 0.01477250190936363
-0.7922378816180872 -0.6076472608018019 -0.05589226573822257
-0.7540598308341504 -0.641391114459738 -0.1414609833645552
-0.711310191560077 -0.6603513111903764 -0.2407778170677614
-0.659136390862138 -0.6636205368147015 -0.353761220824162
-0.5921972527798787 -0.6480064095444102 -0.4789468728255004
0 0 0
0 0 0
0 0 0
0 0 0
0 0 0
0 0 0
0 0 0
0 0 0
0 0 0
-0.4971870609196724 0.5937285824905225 -0.632685859481506
-0.5675476420908643 0.6492140365429921 -0.5063702288964608
-0.6250704649909982 0.6787661290362699 -0.3854393024446968
-0.6725311292067093 0.6867693796374573 -0.2757710997191873
-0.7130047326248402 0.6779329910322986 -0.1789723747525871
-0.7491587262968123 0.6555699171828188 -0.09481184787909686
-0.7816970678494257 0.6232367793450508 -0.02292620743207166
-0.8112299396227145 0.5834830989971016 0.03812424746096331
-0.8383131452807975 0.5376809124917669 0.09016821386407045
-0.8632274001274526 0.4864845872467343 0.1348006010393596
-0.885967155169225 0.4301824209876239 0.1732203355110955
-0.906279632812502 0.3689783887672169 0.2061848097508268
-0.9237218220074952 0.30322251790122 0.2340813964944601
-0.9377532809135838 0.2335037105142257 0.2570890921682547
-0.9478489526595126 0.1605882889808511 0.2753066733380555
-0.9535888472951168 0.08533804235321733 0.2887658720169155
-0.954714394814694 0.008675687428012434 0.2973973045965002
-0.9511624056120026 -0.06842147534364212 0.3010125908698623
-0.9430813988417649 -0.1449259311046829 0.2993224843744623
-0.9308258397368335 -0.2197867831293892 0.2919880580432233
-0.9149166508906441 -0.2919990608756562 0.2786827414297148
-0.8959583909883302 -0.3607305939769593 0.2590984372523919
-0.8745279664982193 -0.4254337712893271 0.2328238434074764
-0.8510737475354613 -0.4858065466383171 0.1991619328569039
-0.8258366361547627 -0.5416085767774451 0.1570159225865196
-0.7987735656761993 -0.5924209721075309 0.1048722202687532
-0.7695107711577156 -0.6373245215502424 0.0408733079528934
-0.7374420167534227 -0.6744126643753929 -0.03669918332507714
-0.701627129587062 -0.7007992432662247 -0.1288401787677514
-0.6593213056294632 -0.7136006045004751 -0.236790188140505
-0.6073877987901802 -0.7078962536168306 -0.3605037530956849
-0.5433031751869291 -0.6774857389330239 -0.4958172378751822
0 0 0
0 0 0
0 0 0
0 0 0
0 0 0
0 0 0
0 0 0
0 0 0
-0.5383755757640888 0.6516244032683757 -0.5343569747704421
-0.5770399876030261 0.7082010698210573 -0.4067875335004855
-0.6195071065400041 0.7299359158038855 -0.2887983790916671
-0.6579838969934118 0.730026667960752 -0.1847112756804111
-0.692448910603336 0.7152273407706915 -0.09468028949225556
-0.7241688429851946 0.6894035607694025 -0.01738439668072102
-0.753941282437223 0.6551328137232527 0.04871898007931317
-0.7821968754005064 0.6140559112112987 0.1053726056437139
-0.8091126515557786 0.567038364764848 0.1542861302165029
-0.8346258528033147 0.5144306365717946 0.1968776421757358
-0.858448471726155 0.456326106717958 0.2341638437476178
-0.8800925099716403 0.3927902134161614 0.2667452382635979
-0.8989138941360311 0.3240476606205693 0.2948676390781662
-0.9141868816407011 0.2505912683472606 0.3185378496570877
-0.9252063155128615 0.1731947369325005 0.337634205663461
-0.9313929272353105 0.09287209196676141 0.3519687338809457
-0.9323815557386859 0.01081869178443602 0.3613137008561682
-0.928079956026295 -0.0716548415243667 0.3654219190310666
-0.9186910531306203 -0.1532035205960102 0.3640541582989257
-0.9046921861344284 -0.2325427112170511 0.3570097138834337
-0.8867701564180857 -0.3085579057667176 0.3441376301352422
-0.8657217316746517 -0.3804057818783668 0.3252957491572097
-0.8423431853147695 -0.447565108639445 0.300238957635962
-0.8173361593202326 -0.5097839474641921 0.2684807806444935
-0.7912341219953795 -0.5669405883561935 0.2291875508498084
-0.7643389537244457 -0.6188509245287037 0.1811339201513276
-0.7366581273497852 -0.6650357598993918 0.1227283238072825
-0.7078326620982036 -0.7044515362439742 0.0521627793591799
-0.67699414438368 -0.7352715921777502 -0.03247482419667164
-0.6426991546855102 -0.7544287922707401 -0.1333228936058706
-0.6045112494118747 -0.7557652947951587 -0.2517637156495757
-0.5691467019073874 -0.72594016289174 -0.3861125633913728
0 0 0
0 0 0
0 0 0
0 0 0
0 0 0
0 0 0
0 0 0
-0.4137810603216212 0.7012153589764756 -0.5805878524862597
-0.5061576433120031 0.7410283326540145 -0.4412272094067288
-0.5575282658151621 0.7678722634344424 -0.3154907603483877
-0.5969274344407737 0.7759868102624278 -0.2037697433641656
-0.6307790465910614 0.7685720756080547 -0.1068398754080012
-0.6615774844731512 0.7495017791940281 -0.02371318247648402
-0.6907510459019335 0.7215292583464796 0.04752390909177297
-0.7190727536067701 0.6863509648429794 0.1088886039927404
-0.7468632276364817 0.6448806441323617 0.1622475701754774
-0.7741230089105695 0.597471441807978 0.2091923595620584
-0.8005987786039331 0.5441225860935801 0.2509426368728999
-0.8258133710580149 0.4846794655719862 0.2883020843397606
-0.8490887806058079 0.4190241740794337 0.3216628424086157
-0.8695836315425785 0.3472484622367537 0.3510595579491183
-0.8863653092123668 0.2697814337936693 0.3762638922419969
-0.8985192752123107 0.1874501220813653 0.396894902718118
-0.9052808025954315 0.1014676349266448 0.4125178632672332
-0.9061600212761758 0.01335939884056435 0.4227239552040771
-0.9010315655931422 -0.07516472195801967 0.4271912714203602
-0.8901647066070908 -0.1623713953204541 0.4257256453313566
-0.8741853252269431 -0.2466751650262586 0.4182718973552147
-0.8539791157330301 -0.3267846481981933 0.4048845064877318
-0.8305621601332392 -0.4017984605862633 0.3856481495162599
-0.8049526422186147 -0.4712204051275983 0.3605586964374209
-0.7780673846675109 -0.534893058266799 0.3293942336086798
-0.7506477358519323 -0.5928658757341215 0.2916128084470571
-0.7231990931865179 -0.6452336636854841 0.2462855880095407
-0.6959250242075399 -0.6919521217963365 0.1920693151528426
-0.6686288593394448 -0.7326340454343503 0.1272116501305226
-0.6405632806802368 -0.7663038618973144 0.04956888828119187
-0.6102314562731489 -0.7910400151652084 -0.04328122205042268
-0.5750258161240779 -0.8036304218887753 -0.1533735824896397
-0.5289053238108259 -0.8006370525292594 -0.2814950595691244
-0.4466936549628717 -0.7851961204262816 -0.4288727446264529
0 0 0
0 0 0
0 0 0
0 0 0
0 0 0
-0.3391381792522415 0.6878873617394318 -0.6417135442957692
-0.4194261468499139 0.758030909495138 -0.4994705672896129
-0.4829491423503991 0.7977146855227678 -0.3611251949176697
-0.528174715041452 0.8150046174184127 -0.2383252902600706
-0.5636430985139499 0.815356487236633 -0.1322885339654627
-0.5943000053541613 0.8031578190247796 -0.04177345299831726
-0.6227402519916867 0.7816254657041418 0.03544305167608106
-0.6503665604891601 0.7527622016677994 0.1018450034991718
-0.6778916150836783 0.7176022000583407 0.1597186296919383
-0.7055737994155654 0.676500694497453 0.2109796765632806
-0.7333418329690978 0.6293636931005169 0.2571207845048734
-0.7608538709947841 0.5758352968858116 0.299190738246826
-0.7875207884069741 0.5154710674123313 0.3377877832125504
-0.8125185777773158 0.4479166287170429 0.3730740603224591
-0.8348196110747715 0.373089148090628 0.4048218182632647
-0.8532659268874144 0.2913414566227845 0.4325013452763758
-0.8666980103983805 0.2035711499318718 0.4554045955926483
-0.8741257708166656 0.1112415802926729 0.472789009610162
-0.8749062485000589 0.01628973576000692 0.4840182856508851
-0.8688752770704915 -0.07907162221353771 0.4886751799060344
-0.8563892854146248 -0.1726203250293692 0.4866206070582941
-0.8382620804276253 -0.2623879818031808 0.4779845515520371
-0.8156210038654692 -0.3468594233535446 0.4630884564360576
-0.7897305923009428 -0.4250647712281752 0.4423183602844678
-0.7618312704645906 -0.4965654982421784 0.4159757460451319
-0.7330211432513132 -0.5613519915506298 0.3841405278393293
-0.7041806660673237 -0.6196971417791652 0.3465617434277953
-0.6759232710121202 -0.6719915862509543 0.3025806334057108
-0.6485442279065242 -0.7185781838681518 0.2510692695609684
-0.6219419733459076 -0.7595680275928935 0.1903801282939974
-0.5954817444746979 -0.7946101726463218 0.1183053909352934
-0.5677588213027331 -0.8225677840322103 0.03212727042979695
-0.5361289391652423 -0.8411376199718076 -0.07108631976487437
-0.4957089157063433 -0.8465652565308941 -0.1939070326832473
-0.4383643493304431 -0.833171592539242 -0.3371376493685036
-0.3645941756681278 -0.7910470953905181 -0.4912388216978603
0 0 0
0 0 0
0 0 0
0 0 0
-0.3744720435975925 0.7301279592518635 -0.571562640208885
-0.4142739816231428 0.803749032513725 -0.4270416383484851
-0.4567058390402864 0.8403668752537409 -0.2918960286861931
-0.4926571891524296 0.852707153534275 -0.1737222043605855
-0.5232927536077956 0.8490065005689804 -0.07316184807113597
-0.5509748861893996 0.8344365426793906 0.01193025690600012
-0.57746003024057 0.8120366387967531 0.08447727934913046
-0.6038322917055892 0.7833768117881565 0.1473340905771599
-0.6306727104466197 0.7490421604467338 0.2029477128996601
-0.6581913304303908 0.7089739858433419 0.2532588792987839
-0.6862986172468263 0.6627041352218472 0.2996955740830301
-0.7146320933644283 0.6095307576693512 0.3431810405436186
-0.742552751378223 0.5486833856235177 0.3841379358529228
-0.7691365463924037 0.4795070614945462 0.4224949123722445
-0.7931886221071687 0.4016764662926819 0.4577202488271129
-0.8133155155996198 0.3154183985249306 0.488906029781687
-0.8280763369581996 0.2216936095696001 0.514918948618024
-0.8362089098505318 0.1222644459243207 0.5346083279835842
-0.8368805990771283 0.0195880025474347 0.5470348919808569
-0.8298821297009125 -0.08347912188289544 0.5516583063933123
-0.815684869102693 -0.1840894887300626 0.5484243379501189
-0.7953394685918072 -0.279801073905872 0.5377234314600973
-0.7702622534641466 -0.3688406571602848 0.5202428572444828
-0.74199184628695 -0.450193270060014 0.4967636456468547
-0.7119856225167523 -0.5235348125201099 0.4679612947765717
-0.6814868264927554 -0.589074088432181 0.4342435073258179
-0.6514576236353947 -0.6473586185176832 0.3956384506569101
-0.6225509157532484 -0.6990899959476778 0.3517151331129598
-0.5950912105706246 -0.7449511333477152 0.3015199164657988
-0.5690348912604851 -0.7854325761642722 0.2435055663185581
-0.5438879601010498 -0.8206082509594711 0.175465054396469
-0.5185601198664187 -0.8498014040973175 0.09451442047831785
-0.4911736388188007 -0.8710573680077546 -0.002741927953247116
-0.4590851290292939 -0.8803019018201325 -0.1196219292438212
-0.4205153033800241 -0.8699320669786693 -0.257653019515444
-0.3831165056779234 -0.8264438496249589 -0.4125679416704782
0 0 0
0 0 0
0 0 0
-0.2570376522117759 0.7101160143362998 -0.6554898103926448
-0.3415393494329411 0.7919134329674586 -0.5061857242896299
-0.3869942323839386 0.8478653882988979 -0.3624358528434024
-0.4217629185922342 0.8764687823636387 -0.2322036047148291
-0.4511224579074042 0.8844075025389107 -0.1196323427191352
-0.4773615904117539 0.8783681351844964 -0.02439940761720521
-0.5021295104385768 0.8629712372136399 0.05609454954515456
-0.5266013834962232 0.8408641398265619 0.1250539133877827
-0.5515440363321265 0.8132613251311379 0.185486368858768
-0.5773990124201981 0.7804197940065707 0.2399069102358681
-0.6043392501038426 0.7419685283467131 0.2902701736777947
-0.6322906005792065 0.6971237906492839 0.3379748761815867
-0.6609180617149973 0.6448489758142176 0.3838712207111193
-0.6895894894730304 0.5840120816622005 0.4282478540295418
-0.717332828494315 0.5135855462863095 0.4708115332169951
-0.7428224303923529 0.4329086183317884 0.5106906745575637
-0.7644362732837621 0.3419988015695994 0.5465107536114825
-0.7804277992431872 0.2418420703144901 0.5765803180775738
-0.7892171417613353 0.134544308740449 0.5991945695144627
-0.7897430824157544 0.02321468618709171 0.6129983214672754
-0.7817445921115341 -0.08845980529252431 0.6172926822439894
-0.7658406772678162 -0.1968367974066255 0.6121628314661669
-0.7433702788381491 -0.2988991824551363 0.5983810719497591
-0.716079858218604 -0.3926041110569495 0.5771409261478566
-0.6857932355468827 -0.4769439532244774 0.5497382136624164
-0.6541622075702186 -0.5517964078875561 0.5172934664474775
-0.6225287891689265 -0.6176702899396613 0.4805635437501729
-0.5918790829238898 -0.6754459054816813 0.4398317632518213
-0.562849614745379 -0.7261497403116751 0.3948504347550657
-0.5357468621215923 -0.7707743301981558 0.344793027241636
-0.5105521368404344 -0.8101093890199779 0.2882000926254948
-0.4868906818127399 -0.8445400408325243 0.222911604441138
-0.4639544389578626 -0.8737382988999403 0.1460399383960872
-0.440383849470993 -0.8961781762858964 0.05409936666906624
-0.4141580834740345 -0.9084541551146726 -0.05642809537810166
-0.3824529312368626 -0.9047217192592496 -0.1876389247702047
-0.3398395448437124 -0.8777285036612446 -0.3377895167423203
-0.261290991823118 -0.825401621403983 -0.5004389882650696
0 0 0
0 0 0
-0.2945745746285776 0.7416570680841224 -0.6026363856781763
-0.325216725332192 0.8313229425383402 -0.4507063864353382
-0.3548710476555933 0.8827247899791709 -0.3079991634599833
-0.3809574973700513 0.9064751236169929 -0.182137957222277
-0.4044897173163326 0.9114785811963195 -0.07479882756899879
-0.426659390091783 0.904276851789008 0.01565695261114635
-0.4484561634466278 0.8890234705030091 0.0923273435203022
-0.4706214209734671 0.8679676012744095 0.1585803306178333
-0.4936746358111243 0.8420161653444693 0.2174721390324484
-0.517945684898557 0.8111718050834376 0.2715374193967405
-0.5435897086154571 0.7748194943364776 0.3227459990201687
-0.5705718632273655 0.7319063752650338 0.3725061163788471
-0.5986243612439262 0.6810724897408195 0.4216504925214032
-0.6271758600322519 0.6207944592453798 0.4703877974214906
-0.6552718874658648 0.5495968094274474 0.5182297758370243
-0.6815176306330968 0.4663732230391542 0.5639412522314009
-0.7041047316704643 0.3708139546019351 0.6055852854154705
-0.7209871693195371 0.2638580211973311 0.6407467879954055
-0.7302424067326473 0.1479833301593158 0.666968486065323
-0.7305489097854344 0.02710604884796687 0.6823221764878846
-0.7215901320443701 -0.09402757236856066 0.6859056035422535
-0.7041630980460811 -0.2107752815587544 0.6780325302181101
-0.6799343053712935 -0.3194476951568457 0.6600322040917662
-0.6509952293931356 -0.417747570068623 0.6337919051306502
-0.6194319959501842 -0.5047668857826629 0.6012606701011153
-0.5870376431504264 -0.5806945015856467 0.5640750848535939
-0.5551864811774101 -0.6464335641678772 0.5233465565331058
-0.5248251556060478 -0.7032505898663521 0.4795801954790405
-0.496521318415133 -0.7525125184908038 0.4326563184259821
-0.4705234298599448 -0.795496706636598 0.3818280917941462
-0.4468022072052862 -0.8332410722391428 0.325694800649699
-0.4250580718206336 -0.8663714604557609 0.2621566861399423
-0.4046864500843076 -0.8948427348925625 0.1883755741282817
-0.3847064227003486 -0.9175136104381183 0.1008451436307616
-0.3636881230570646 -0.931511058177915 -0.004254132048891405
-0.339791964933325 -0.9314537139188079 -0.1301360802913975
-0.3113357647739518 -0.908806836394214 -0.2777412027333324
-0.2808104537831616 -0.8513872340432725 -0.4430409312402638
0 0 0
0 0 0
-0.2822847954791663 0.7843457501577876 -0.5523740023305788
-0.2962390882068602 0.8670776432593542 -0.4005231119151197
-0.31525100324817 0.9123372149070277 -0.261261576292247
-0.3344942569106401 0.9318931514423067 -0.1403165934190381
-0.3531752912100661 0.9347880295085718 -0.0379282686945429
-0.3716236529754467 0.9271243054531574 0.04833614369376673
-0.3903507779793863 0.9125639935634693 0.121873819101476
-0.4098096499705779 0.8929816442897801 0.1861177953676442
-0.4303546649413351 0.8690220723931508 0.2441218958978153
-0.4522442585586999 0.8404870486718634 0.298423611022238
-0.4756328317453296 0.806570480484823 0.3510234598661464
-0.5005415540607375 0.765991408369061 0.4033798643502717
-0.5267969412756405 0.7170861967430977 0.4563686767331301
-0.5539396714655961 0.6579237829023095 0.5101834339412654
-0.5811081837677036 0.5865177260827195 0.5641898933417329
-0.6069344331410012 0.5012017736748717 0.6167879505413296
-0.6295179276552029 0.4011970073900002 0.6653932221040475
-0.6465822515923284 0.2872829417783114 0.7066823213361104
-0.6558882297703442 0.1623112077791422 0.7372012628027704
-0.6558529102165439 0.0311653148675095 0.7542451082437978
-0.646106112423946 -0.1000845607612642 0.7566571034396222
-0.6276370941422768 -0.2255765330621084 0.7451086536796614
-0.6024369025120124 -0.3408701259091311 0.7217183216147587
-0.5728983498145102 -0.4434747677301479 0.689287756431595
-0.5412881506674093 -0.5327070175781704 0.6505615815355422
-0.5094439975731727 -0.6091944052392609 0.6077408904803493
-0.4786838273968202 -0.6743204509003263 0.5622754866489479
-0.4498469609920113 -0.7297813291724951 0.514836792855248
-0.4233865646764726 -0.7772852830607028 0.4653723300634639
-0.3994620617208943 -0.8183709890530558 0.4131573374902286
-0.3780045484550499 -0.8542807691882466 0.3568149783044862
-0.3587450001754008 -0.885830569695483 0.2942893586967202
-0.3412030990744343 -0.913201300691745 0.222808953134532
-0.3246486799067798 -0.9355800506392566 0.1388999765321462
-0.3080900017874535 -0.9505738140103787 0.0386001932167218
-0.2904801393410311 -0.9533692259973019 -0.081904869023276
-0.2717425970577486 -0.9357254654240885 -0.2248862252366343
-0.2562779956808234 -0.8851087034889589 -0.3884638618171749
0 0 0
0 0 0
-0.2373064127374966 0.8275833414203536 -0.5087155192022185
-0.2508354303108551 0.8995710390669361 -0.3575661233573453
-0.266789399431787 0.9377376772277831 -0.2224218178557755
-0.2823652056829251 0.9534022728646577 -0.1062732173040005
-0.2975024549764019 0.9546853648217226 -0.008254906312459138
-0.3126318375298438 0.9469467687722167 0.07451946909748297
-0.3281795342121112 0.9333289699832438 0.1455858067063488
-0.3444888615698899 0.9153702439530149 0.2083860377752753
-0.3618335307731388 0.8935004566471243 0.2659575717659179
-0.3804317615087884 0.8673684286621666 0.3208483813196558
-0.4004448946657144 0.8360232796787601 0.3751119328564926
-0.4219479772891069 0.7979999623120155 0.4302975303341311
-0.4448713617737832 0.7513644379857393 0.4873817321196118
-0.4689013208937969 0.6937888380102626 0.5466155866021577
-0.493345941220806 0.6227440602545511 0.6072887432668519
-0.51698675636978 0.5359151353824529 0.6674725922509928
-0.5379930640214818 0.4319119207927292 0.7238891874740997
-0.5540225872241311 0.3112132821439621 0.7721432936072564
-0.562646642017375 0.1770014555747851 0.8075266193451326
-0.5620856978014919 0.0352647671279139 0.8263268509049086
-0.5519319278667328 -0.1063424962428672 0.8270806614195176
-0.5333357500942228 -0.2405392538357839 0.8109832581721746
-0.5085216873920519 -0.3621100295350568 0.7812054915078747
-0.4800387450883171 -0.4684783844263044 0.7416810679391463
-0.4501722306951632 -0.5593336516252413 0.6960537542966871
-0.4206619484121587 -0.6358543508951507 0.6470956417762307
-0.3926678067072141 -0.6999652948942016 0.596540509537633
-0.3668616419783064 -0.7538019155156325 0.5451561315897895
-0.3435538553201653 -0.7993961720995998 0.4928858980810438
-0.3228024306412326 -0.8385111350991169 0.4389734241237183
-0.3044860918083735 -0.8725526592964727 0.3820210421559465
-0.2883346836956034 -0.9024791002892679 0.319991536949384
-0.2739186455909741 -0.9286466943530022 0.2501677290636169
-0.2606022459475014 -0.9505140752447128 0.1691433184279115
-0.2474921402898564 -0.9661395167861152 0.07295255032579359
-0.23349818350634 -0.9714301975099772 -0.04244961324871623
-0.2179344264489306 -0.9591944524033351 -0.1801404680993173
-0.2032785013469168 -0.9179151451590325 -0.3407486422244746
0 0 0
-0.06514077108597298 0.7728627727486602 -0.6312208919558802
-0.1579414173115052 0.8662089702482255 -0.4740638443913867
-0.1928243872425347 0.9259360091576906 -0.3247479986538324
-0.2118934271339881 0.9580899960861367 -0.1927815731263733
-0.225955091922661 0.970830373728652 -0.08020400164646782
-0.2383410350277661 0.9710724207342086 0.01455694718326375
-0.2503187928410187 0.9635167884628058 0.09474122809492917
-0.2624805674915291 0.9508962780808082 0.164012865414243
-0.2751640641799113 0.9344950577576191 0.2258400425313834