# OOMMF: rectangular mesh v1.0
# Segment count: 1
# Begin: Segment
# Begin: Header
# Title: 
# Desc: time = 3.9999999999999996e-10
# Desc: stepsize = 4.410735946581709e-14
# Desc: step = 2558
# meshunit: m
# valueunit: (none)
# valuemultiplier: 384000.0000000001
# xmin: 0
# ymin: 0
# zmin: 0
# xmax: 9.357999999999999e-08
# ymax: 9.357999999999999e-08
# zmax: 2.3395e-08
# ValueRangeMaxMag: 1
# ValueRangeMinMag: 0
# meshtype: rectangular
# xbase: 1.16975e-09
# ybase: 1.16975e-09
# zbase: 1.16975e-09
# xstepsize: 2.3395e-09
# ystepsize: 2.3395e-09
# zstepsize: 2.3395e-09
# xnodes: 40
# ynodes: 40
# znodes: 10
# End: Header
# Begin: Data Text
0 0 0
0 0 0
0 0 0
0 0 0
0 0 0
0 0 0
0 0 0
0 0 0
0 0 0
0 0 0
0 0 0
0 0 0
0 0 0
0 0 0
0 0 0
0 0 0
-0.837571514721366 0.02455842657786495 -0.5457754496231718
-0.8473368156622455 0.04282643273978893 -0.5293261919479799
-0.8577523819406893 0.02331130321848917 -0.5135342582703991
-0.8631492240978724 -0.01191187221107975 -0.5048084034954913
-0.8617521084281733 -0.05165460786007627 -0.504693080105542
-0.8536514390012648 -0.0872752851104127 -0.5134805208573789
-0.8408604091248384 -0.1074862600059836 -0.5304719373127431
-0.8295329331292146 -0.08959377237489753 -0.5512241547734246
0 0 0
0 0 0
0 0 0
0 0 0
0 0 0
0 0 0
0 0 0
0 0 0
0 0 0
0 0 0
0 0 0
0 0 0
0 0 0
0 0 0
0 0 0
0 0 0
0 0 0
0 0 0
0 0 0
0 0 0
0 0 0
0 0 0
0 0 0
0 0 0
0 0 0
0 0 0
0 0 0
0 0 0
-0.7819429375886078 0.2363847518509192 -0.5767906825250192
-0.8099310202925397 0.26584421923683 -0.5228179352951131
-0.8470023177707806 0.2483120027558142 -0.4700300234860763
-0.8836899173645589 0.199811255992926 -0.423281929601002
-0.9157658515607912 0.1176480249346138 -0.3840987468661187
-0.9289339679921953 0.07658702479594931 -0.3622376440172654
-0.9371038075260799 0.03722612835586381 -0.3470600370076566
-0.940777880173541 -0.006052775606047261 -0.338969532677556
-0.9394484084754041 -0.05115403897782361 -0.338850929037069
-0.9331515373993053 -0.09468865052595542 -0.3467885057364005
-0.9224223327026456 -0.1345151979892473 -0.3619982066824677
-0.9065243971077501 -0.1760427476910273 -0.3836958019496993
-0.8702840152081421 -0.2579244431651255 -0.4196197260510443
-0.8297868588007798 -0.3077195103532321 -0.4655775680909693
-0.7894863809653536 -0.327126783488865 -0.519325833937093
-0.7593579489479375 -0.2995569688303595 -0.5776167655069818
0 0 0
0 0 0
0 0 0
0 0 0
0 0 0
0 0 0
0 0 0
0 0 0
0 0 0
0 0 0
0 0 0
0 0 0
0 0 0
0 0 0
0 0 0
0 0 0
0 0 0
0 0 0
0 0 0
0 0 0
0 0 0
0 0 0
-0.7546542594828465 0.3307353617923859 -0.5666666296019693
-0.7925362978713621 0.3590078416059405 -0.4929498820588143
-0.8479751775965289 0.3215478574420724 -0.4213609777311462
-0.8821169277723367 0.3000495320633129 -0.3630977885447396
-0.9122991296969688 0.2664798398117328 -0.3109642952624401
-0.9390805748503406 0.2172903631077729 -0.2662941457096744
-0.9602234945426728 0.1558000056059146 -0.2317265603711713
-0.9724592534946974 0.101934717818695 -0.2096003664017743
-0.9793816658948129 0.05088943348476343 -0.1955040103647501
-0.9821037923779096 -0.0003522809243072593 -0.1883401627244642
-0.9807647207922365 -0.05199487696407675 -0.1881411576950035
-0.9753641637134788 -0.1033231768323843 -0.1949078481559155
-0.9657216961663622 -0.1545385154273409 -0.2085652243378013
-0.9505585604665757 -0.2086303636735887 -0.230025638738678
-0.9260188298790927 -0.2703951263601386 -0.2633924872695501
-0.895946296096086 -0.3204101384936894 -0.3075997036119485
-0.8627287811800132 -0.35521092925075 -0.3598947705433724
-0.8257197052509249 -0.3781843019111085 -0.4185255095550718
-0.7668790005437268 -0.4165788636472714 -0.488219877603731
-0.7264563118594582 -0.3906801924576772 -0.5653584828945126
0 0 0
0 0 0
0 0 0
0 0 0
0 0 0
0 0 0
0 0 0
0 0 0
0 0 0
0 0 0
0 0 0
0 0 0
0 0 0
0 0 0
0 0 0
0 0 0
0 0 0
0 0 0
0 0 0
-0.7582920182850537 0.4115161309146702 -0.5056161478851314
-0.8097061655804734 0.4110695565688821 -0.4188051397526405
-0.8497089534678304 0.4009293262590115 -0.3424184132638001
-0.887948233407853 0.3692783758569229 -0.2741922973249717
-0.9176310262867028 0.3326522020428178 -0.2174760034396351
-0.9423391362840208 0.2886863791907157 -0.1692841596170154
-0.9630470138019855 0.2362136379476286 -0.1293969337141492
-0.9791437847741135 0.1774590756910654 -0.09892282442943219
-0.9898238934177378 0.11885360589409 -0.07824628032898794
-0.9959913980344391 0.06113080259547859 -0.06530053610373622
-0.9982581584359045 0.003672745941063079 -0.05888259550502376
-0.9968317863465498 -0.05376418445205701 -0.05861571631696566
-0.9917087428486261 -0.1111524727357136 -0.06448951203361175
-0.9826592687261646 -0.1687445230639598 -0.07685081341453308
-0.9690235513183688 -0.2271803639013225 -0.09686299214869656
-0.949886852275364 -0.2858018342005043 -0.1266186378146103
-0.9262496635907047 -0.3383643211915524 -0.1660456167524024
-0.898748259194 -0.3827071291165404 -0.2139785501379276
-0.8662657969504207 -0.4200760043973651 -0.2704065819528005
-0.8249707846234228 -0.4529108217534424 -0.3380754236208764
-0.7819909056629154 -0.4649577207640031 -0.4150958219043357
-0.7277391960700047 -0.4665921825446971 -0.5026802141437025
0 0 0
0 0 0
0 0 0
0 0 0
0 0 0
0 0 0
0 0 0
0 0 0
0 0 0
0 0 0
0 0 0
0 0 0
0 0 0
0 0 0
0 0 0
0 0 0
-0.6528290353027784 0.5013566730577916 -0.5678518618848278
-0.7045254449829228 0.5368878178814646 -0.464107065645518
-0.7850061891424368 0.5018569279418776 -0.363187151321201
-0.834858518249869 0.4749355139091215 -0.2782939311834001
-0.8717624074570214 0.4446393918675767 -0.2057331187348535
-0.9027513254052572 0.4055379957178933 -0.1434537504151251
-0.9282718819186376 0.360456786000996 -0.09155445737408095
-0.9495817058072363 0.3097498874068077 -0.04847258243263483
-0.9672377922939975 0.2535112086406278 -0.0135321931630192
-0.9810960455440816 0.1930722263994066 0.01317819452507664
-0.9908641640862123 0.1310422864600118 0.03187675468210785
-0.9966833653081052 0.06865737286633879 0.04368563229714844
-0.9987531194367422 0.006229130561977722 0.04953185185128756
-0.997177438412242 -0.0561475026087097 0.04984590527218244
-0.991964986847082 -0.1183786562485678 0.04463136357149504
-0.9830279138822801 -0.1803780865784509 0.03346440512767083
-0.9701882469578428 -0.2418617313074417 0.01541649745675313
-0.9533546913898483 -0.3016637702935599 -0.01066780658056612
-0.9329031530004498 -0.357294488642829 -0.04508165377709587
-0.9089672157957059 -0.4075379572623463 -0.0877007069471837
-0.8808760330511242 -0.4524449227015341 -0.1391078945197466
-0.8472042330301247 -0.4918415145019638 -0.2008405142102861
-0.8074029096704926 -0.5230414034197359 -0.2729985929713463
-0.7541259173387946 -0.5511978153592481 -0.3570365095352474
-0.6693476350678251 -0.5873004237355453 -0.4550296206942553
-0.6141136657358502 -0.5548352341742616 -0.5612684460000115
0 0 0
0 0 0
0 0 0
0 0 0
0 0 0
0 0 0
0 0 0
0 0 0
0 0 0
0 0 0
0 0 0
0 0 0
0 0 0
-0.6312644556730358 0.5474380200227156 -0.5493785591351686
-0.6947573541955393 0.5711701915052327 -0.4371233591643087
-0.7464431468386915 0.5764788738225838 -0.3324074857367031
-0.7985753732176104 0.5535034865720064 -0.2364556272178484
-0.8395052974793228 0.52054437765966 -0.1557703642900987
-0.8721422254639692 0.4811896293299652 -0.08845608621256713
-0.8995362111122348 0.4356592268156916 -0.03218140749249726
-0.9228333643186029 0.3849303130736063 0.01439568607131086
-0.9426865798651017 0.3295009225454377 0.05264175323772658
-0.9593135166289785 0.2697452233762648 0.08339718987250674
-0.9725717312458106 0.2065194608402592 0.1070230810422439
-0.9821991679751493 0.1411786976159775 0.123908715465782
-0.9880546953881769 0.07477710949898865 0.1347453257681041
-0.9900959767581412 0.007942605415024419 0.1401672994195258
-0.9883235975809579 -0.05891972886085108 0.140516660989349
-0.9827616410262699 -0.1254615171188955 0.1357901493097977
-0.9734604080922322 -0.1912841046724923 0.1256392660617973
-0.9605217302914122 -0.2557830719747574 0.1094213220955907
-0.9441559071539627 -0.317961114488332 0.08643120188690474
-0.9246829758375068 -0.3765573162022384 0.05626705795453788
-0.9022404618223073 -0.43083234787865 0.01859131711414786
-0.876533637231278 -0.4805603483149981 -0.02739588344027419
-0.8467755493139303 -0.5254275725203752 -0.08304839022784935
-0.8116407464247428 -0.5646426854337527 -0.1497262052188782
-0.7678020962273695 -0.5981183914889082 -0.2296395671298337
-0.7121399165904256 -0.6224490034280173 -0.3246751874259089
-0.6567469126085138 -0.6196649077118148 -0.4297660932759729
-0.5898032514056407 -0.5982242436799506 -0.5424572599798853
0 0 0
0 0 0
0 0 0
0 0 0
0 0 0
0 0 0
0 0 0
0 0 0
0 0 0
0 0 0
0 0 0
-0.5883896308309828 0.5926254007225664 -0.5500843360331182
-0.6573421893061583 0.6204519041476981 -0.4277156541414887
-0.7109907351068281 0.6286776615818326 -0.3150501109668907
-0.7552976147369441 0.6193632103072358 -0.2142772197192157
-0.7951832029724096 0.5931569885668004 -0.1258906693321776
-0.8294211407541319 0.5562341605564604 -0.05161520996919092
-0.8588242401952526 0.5121740490043346 0.009933175703258832
-0.8845502195403845 0.462457209110104 0.06086245848756488
-0.9072122016774068 0.4079035053727154 0.1028627796254933
-0.9270277543604936 0.3489678606747688 0.1372624306262093
-0.943919100706022 0.2860337953914048 0.1649284669677189
-0.957598775019137 0.2197199544709674 0.1863537702573342
-0.967702313716154 0.1509242191565708 0.2019260064983723
-0.9739241952846771 0.08055585155185382 0.2120905858821863
-0.9760709773698882 0.009391074537250133 0.217249291955638
-0.9740662416627665 -0.06190609681943244 0.217629483364629
-0.9679481401993183 -0.1327102793349714 0.2132237783257631
-0.9578717664427232 -0.2023624177109122 0.2037918814626597
-0.944113812230495 -0.2701056029638806 0.1889234575247859
-0.9270613153882563 -0.3350766483197049 0.1681694302227006
-0.9071391462097433 -0.3964548654076255 0.1411457017003308
-0.8846487490265653 -0.453725691249838 0.1073759188346671
-0.8596268340934586 -0.5066397220935317 0.06601437800544376
-0.8317597751536204 -0.5549124576859161 0.01574295846955781
-0.8002779466779207 -0.5979283923561204 -0.0451314266935566
-0.7637957950534245 -0.6344459812499058 -0.118719334291221
-0.7212593502501564 -0.6611684572526826 -0.206497508001499
-0.6737740557905919 -0.6721282004550424 -0.3070377890367276
-0.6163140219678097 -0.666407184015859 -0.419593245200533
-0.543535010386339 -0.6410722783432787 -0.5418450206692678
0 0 0
0 0 0
0 0 0
0 0 0
0 0 0
0 0 0
0 0 0
0 0 0
0 0 0
-0.545094505358565 0.6157677598989253 -0.5689481928057776
-0.6106096726092696 0.6597778459584556 -0.4380057324949304
-0.6637033961908706 0.6781886881185912 -0.3155279784625886
-0.7074039518726291 0.6759250010112966 -0.2066519825282711
-0.744767500926641 0.6578145765950887 -0.1122557454320676
-0.7783134009334404 0.6270811132402367 -0.03158365629255462
-0.8086934922103342 0.5871254681130659 0.03603498785439839
-0.8363731773873155 0.5403522234747198 0.09219209691167722
-0.8617130464990073 0.4880532914591181 0.1387609822295884
-0.884811760250956 0.4308843112669378 0.1773326231284611
-0.9055192246218212 0.3692053042139161 0.2090989650395352
-0.9234898808532064 0.3033436726324689 0.2348383619334277
-0.9382484784045911 0.2337989909581495 0.2550055383681304
-0.9492815822081854 0.1613045774264669 0.2698987050387471
-0.9561387081579805 0.08673489949938434 0.2797781763662407
-0.958505376024218 0.0110040835946573 0.2848619916326385
-0.9562415077738292 -0.06497657678052465 0.2852721915650345
-0.9493973198130597 -0.1403009581337925 0.2809988794969078
-0.9382142571562081 -0.2140622185345303 0.271903244307417
-0.9231082931729283 -0.2853628753025282 0.2577578485215068
-0.9046237727031833 -0.3533669575165274 0.2383015383831408
-0.8833458339138915 -0.4174058412535043 0.2132428226094026
-0.8597844038538344 -0.4770700123257159 0.1821400072176543
-0.8342748551293633 -0.5321497532207686 0.1442293529277389
-0.8069067113449315 -0.5824372340318009 0.09832816280136403
-0.7774601923654011 -0.6274711165986009 0.042844452635759
-0.7453802621478529 -0.6662033178466122 -0.0241123223801238
-0.7099374177390408 -0.6965149595177212 -0.1041910459782851
-0.6701694398788673 -0.715267687229206 -0.1981541255140232
-0.623223320770896 -0.7193636437315323 -0.3067713163328495
-0.5660062772730712 -0.7038066017964826 -0.4292937937533759
-0.4963895690665868 -0.6626813103526878 -0.560759196653191
0 0 0
0 0 0
0 0 0
0 0 0
0 0 0
0 0 0
0 0 0
0 0 0
-0.5785389788542106 0.6711738944557876 -0.4634849008839211
-0.6140857671732212 0.7154225144749261 -0.3332706052709273
-0.6532455334137021 0.7259355206793532 -0.2151462128205924
-0.688984764546734 0.7159533204311151 -0.1127423486811485
-0.7213541304672028 0.6920931636166482 -0.02559826816416201
-0.7514840948242369 0.6580033682333285 0.04799190160632782
-0.7800140373956866 0.6160613621442859 0.1097565466776667
-0.8071929673670439 0.5677691031870469 0.1614860950650616
-0.8330069357541738 0.5139380196913627 0.204858870691902
-0.8572176433273586 0.4549539873698805 0.2412359453823897
-0.8793953854572395 0.3910251925716126 0.2715935470714387
-0.898960199911046 0.3223907146891808 0.2965380010354334
-0.9152375956500323 0.2494790050235468 0.3163864244262203
-0.9275378932178723 0.1729793325218031 0.3312878011114532
-0.9352520364212403 0.09381678923385321 0.3413239493908578
-0.9379404939629449 0.01308181445461256 0.3465494133815858
-0.935397468975898 -0.0680420289259335 0.3469897078201677
-0.927683860438874 -0.1483418687997121 0.342632959655425
-0.915126858151537 -0.2266385080717337 0.3334333818751724
-0.8982840396173749 -0.3018565304517352 0.3193249429536161
-0.8778715859529415 -0.3731043322006313 0.300224309258241
-0.8546643225373582 -0.4397486950771692 0.2759890957260533
-0.8293896193587105 -0.5014402966235407 0.2463138003078753
-0.8026408458516998 -0.5580440255073517 0.2106051712708348
-0.7748143731468526 -0.6094860810969928 0.16789700448215
-0.7460567169354894 -0.6555532056690515 0.1168305167859356
-0.7162153740094388 -0.6956517119036975 0.05571565092479841
-0.6847855531753257 -0.7285399148420456 -0.01727248228562581
-0.6507784102317983 -0.7521217219045055 -0.1039248585063946
-0.6126537703395029 -0.7630148147459662 -0.2060673437664735
-0.5701070928296043 -0.7547489437293683 -0.3245488170441838
-0.5307741783903286 -0.7136967953050257 -0.4570729218903777
0 0 0
0 0 0
0 0 0
0 0 0
0 0 0
0 0 0
0 0 0
-0.4573357061267052 0.7285181800848315 -0.5100052089807242
-0.5427935739750473 0.7562421383092721 -0.365339519210301
-0.5901809306951045 0.7713163605898236 -0.2382384119539267
-0.6268358457168257 0.7686743209133705 -0.1273444576447683
-0.6588333166362574 0.7515819617923338 -0.03260698695762841
-0.6884675034248787 0.7237125970002667 0.04746128602391309
-0.7169576703224718 0.6875624886967873 0.1150196639833972
-0.7448705417359728 0.6446177795819564 0.172150498985005
-0.7723227601009339 0.5956681354353517 0.220674028052796
-0.799116884201024 0.5410413579412241 0.2620810072896602
-0.824817601282698 0.4808106339103516 0.2974845524274855
-0.848796874826396 0.4149845933746121 0.3276150981665077
-0.8702743798953216 0.3436782037942739 0.3528566223475963
-0.8883727874861088 0.2672530550114067 0.3733223741503187
-0.9022008080195032 0.1864011921080931 0.3889579637822531
-0.9109614143366475 0.1021556679025951 0.3996417409444974
-0.914066115778892 0.01583683827576428 0.4052558827929778
-0.9112295613153749 -0.07104507252853412 0.4057256268149745
-0.9025227139736787 -0.1569141939905004 0.4010370138601876
-0.8883713647515519 -0.2402643999923449 0.3912407652402584
-0.8694985571336792 -0.3197889802847334 0.376440257186847
-0.8468224569351711 -0.3944849122092209 0.3567539494799781
-0.8213328252711999 -0.4637106260861138 0.332242148721158
-0.7939744001796282 -0.5271763213606591 0.3028032002077291
-0.7655572951843904 -0.5848609303770015 0.2680666333367647
-0.7366945995223251 -0.6368748114722144 0.22731375133694
-0.7077512066605304 -0.6832938650029836 0.1794372411731938
-0.6787828802030141 -0.7239745032945227 0.1229419380144511
-0.6494410006634853 -0.758347983364154 0.05598859513089278
-0.6188200287536761 -0.7851799300596164 -0.02354250294413382
-0.585259914638661 -0.8022320634020099 -0.1178751405806154
-0.5460073543743148 -0.8059932662081283 -0.2285843909725987
-0.4947706224233035 -0.7929398890007873 -0.3555957868398829
-0.4048581140284169 -0.7667419122525723 -0.4981934840005652
0 0 0
0 0 0
0 0 0
0 0 0
0 0 0
-0.3813838767247615 0.726017901654651 -0.572227529092553
-0.4563368844993587 0.7828955029186166 -0.4228844751882301
-0.5150143976484383 0.8096967123677326 -0.2813385935055853
-0.5569850200255091 0.8153036329585222 -0.1582645682135391
-0.5904767844591543 0.8052688453172823 -0.05365867847932394
-0.6201182252303561 0.7837513618178195 0.03445561762422006
-0.6482384604702346 0.753642832236047 0.1086709703021414
-0.6760005813710297 0.7166450115504301 0.1715900387723973
-0.7038938566205474 0.6735739121481782 0.2254586957410387
-0.731962084533896 0.6246708803016083 0.27206212178105
-0.7599247861024774 0.5698392531574502 0.3127259903302932
-0.7872420673644938 0.5088314692398657 0.3483395804138208
-0.8131516230306773 0.4414161485790258 0.3793892746721153
-0.8367034050269263 0.3675382586122523 0.4060086704402011
-0.8568155101605216 0.2874658667670187 0.4280543855542787
-0.8723679892953393 0.2018997516615798 0.4452084697440047
-0.8823363247590784 0.1120166770648076 0.4570939444687491
-0.8859452004057622 0.01942784525671453 0.463382844640017
-0.8828065021335226 -0.0739493350495474 0.4638794839573138
-0.873001024263961 -0.1660870305645243 0.4585676721186666
-0.8570762608473376 -0.255070957159143 0.4476148901744271
-0.8359590480558002 -0.3393015210389105 0.4313315984185733
-0.8108097052981393 -0.4176289581656929 0.4100898378352989
-0.7828592922777717 -0.489399178557416 0.3842131862933285
-0.7532683710559087 -0.5544112749438072 0.3538571737042495
-0.7230272213739912 -0.6128071345445684 0.3189028896129352
-0.6928942809906743 -0.6649247521700372 0.2788773732701
-0.6633532678478575 -0.7111398383764286 0.2329003484529706
-0.6345632612916402 -0.7517021219680066 0.1796479536418739
-0.6062751447278647 -0.786552339537085 0.1173280275720363
-0.5776878593702474 -0.815088319597737 0.0436780080997048
-0.5472034278274365 -0.8358460130898813 -0.04393006915147321
-0.5119542385251942 -0.8461488734618595 -0.1481044955270219
-0.4667889590940245 -0.8419086006180007 -0.2707359892466391
-0.403328840706461 -0.8173317985208965 -0.4114542227040308
-0.3232759490093806 -0.7630116042487567 -0.5597373960830404
0 0 0
0 0 0
0 0 0
0 0 0
-0.4081717217829609 0.7664912909748122 -0.4958698885761248
-0.4448806032618641 0.8259871232741929 -0.3461596756217893
-0.4841707842642716 0.8495955865903422 -0.2092032287301799
-0.5179692082954367 0.8504916164001605 -0.09149814036820869
-0.5475209948928486 0.8367597622339789 0.007338968434316508
-0.5750053555844805 0.8131780287851036 0.09005739586695644
-0.6019512127617949 0.7823741735545661 0.1598292526711352
-0.6292195642731357 0.7455818237150635 0.2195233110210496
-0.6571766596785714 0.7031565344951569 0.2714585161133748
-0.6858179965141095 0.6549268766764594 0.317371173650333
-0.7148352356323801 0.6004329931647658 0.3584561432275912
-0.7436456838209224 0.5391068061360489 0.3954174357717432
-0.7714043704362425 0.4704366643697073 0.4285144596026683
-0.7970219806321741 0.3941388904107105 0.4576139174620669
-0.819214456193609 0.3103352656206451 0.4822651736084337
-0.8366074137763314 0.219710019669618 0.501812258191501
-0.8479032625988709 0.1236011615429596 0.5155412787929017
-0.852091260859169 0.02397707147300661 0.522843746458738
-0.8486488512880129 -0.07672983688942044 0.5233618818164522
-0.837666383224702 -0.1759151346987277 0.5170772628913153
-0.8198444516884628 -0.2711473485434353 0.5043155663010096
-0.7963627554472315 -0.3604661622496443 0.4856650158385978
-0.7686699278507059 -0.4425567608174005 0.4618333633171169
-0.7382637913782045 -0.5167782877287125 0.433482151503448
-0.7065160527649234 -0.5830728670839271 0.4010749292289412
-0.6745625940537262 -0.6418060441438812 0.3647606179453716
-0.6432501647039431 -0.6935864890464144 0.324294631193021
-0.6131137025959471 -0.7390935840699651 0.278984339481092
-0.584355039194853 -0.7789149569529868 0.2276415559657501
-0.5567971113524438 -0.8133720976390911 0.1685313251943348
-0.5297926861080923 -0.8422904368519474 0.09933040689601393
-0.5020733989105883 -0.864654786525729 0.01715815387838622
-0.4715676525591388 -0.8780851511771184 -0.08118137928194966
-0.4354831661252281 -0.8780401307070143 -0.1984941835156784
-0.3921788997409781 -0.8565659060606828 -0.3353961227748415
-0.3505146687955483 -0.8002432560909439 -0.486569828534518
0 0 0
0 0 0
0 0 0
-0.2909943406608778 0.7576689110729229 -0.584174729765771
-0.370245984465353 0.8253966787047836 -0.4261903726861895
-0.4124950387553738 0.8673357920314801 -0.2785255228221047
-0.4450741196595593 0.8832781376117235 -0.1474067828372654
-0.473250898059349 0.8802030862364606 -0.03572274437706585
-0.4992566923822272 0.8645277137017832 0.05774588602770728
-0.524590208196322 0.8404099313144069 0.1360744678940645
-0.550244540440722 0.8100483662285771 0.2026143876569257
-0.5768002658975965 0.774301419431347 0.26030513849531
-0.6045081923340239 0.733184606715352 0.3114645692156728
-0.6333380377657851 0.6862054300228936 0.357777916766924
-0.6629920036056143 0.6325863072439345 0.40034505997014
-0.6928930542300519 0.5714359455975343 0.4397273876833251
-0.7221627871390761 0.5019180481843188 0.4759823334729606
-0.7496106697441601 0.4234480855599503 0.5086998748194498
-0.7737654436837216 0.3359229630148448 0.5370687116936345
-0.7929823062519037 0.2399543679541112 0.5600008600628704
-0.8056466716714142 0.137038288525282 0.576327986395623
-0.8104575643497547 0.02957022939313948 0.5850505430489745
-0.8067193266134651 -0.07936539992567057 0.5855809605536667
-0.7945308857465037 -0.1864220743013026 0.5778991969263109
-0.7747832904535044 -0.2885125626225278 0.5625578672839104
-0.7489637555018835 -0.3832436589796399 0.540534541723664
-0.7188539432167521 -0.4691370830405794 0.512990648684654
-0.6862348590167978 -0.5456205025014443 0.4810197350631952
-0.6526736664272459 -0.6128579105833973 0.445446143307772
-0.6194114363584857 -0.6715117061088577 0.4066958335993719
-0.5873303807011231 -0.7225077501478108 0.3647267125970097
-0.5569634224277362 -0.7668356289862717 0.3189903826055127
-0.5285111960483194 -0.8053813197811514 0.2683968058661371
-0.5018403853027599 -0.8387623657843162 0.2112674168514247
-0.476446302030109 -0.8671162988564866 0.1452867700076709
-0.4513720508877758 -0.889778447566136 0.06750989500924337
-0.425099759296449 -0.9047890175936925 -0.02543675073474514
-0.3954781383007681 -0.9082484059289477 -0.1366816566101076
-0.3596582108463903 -0.8939095827195352 -0.2675287447975621
-0.3122735825556543 -0.8545574741057579 -0.4149900397453451
-0.2273771128972629 -0.7890870812714391 -0.5706498284421243
0 0 0
0 0 0
-0.319479680922248 0.7878024644271919 -0.5265928318162533
-0.3478504313265863 0.8624408601870118 -0.367689869463104
-0.3755426532090546 0.8998110151340002 -0.2220537157181191
-0.4004344473992749 0.9112959445796269 -0.09587468241804921
-0.4236492260695363 0.9057664120927474 0.01041825202773242
-0.4463368892928081 0.889343700953419 0.09925302429092392
-0.4693763228126613 0.865665175248936 0.1740967315721134
-0.4933756437099838 0.8365128609478529 0.2383835306026747
-0.5187115681521102 0.8024270364573375 0.2950409466963406
-0.545557897853804 0.763155190642834 0.3463534828527601
-0.5738876674457266 0.7179435637147227 0.3939669839901643
-0.6034480056429588 0.6657286461826257 0.4389258184903038
-0.6337130802407271 0.6052904480370607 0.4816961754538889
-0.6638255958953071 0.5354217916747424 0.5221676773164425
-0.6925483161815285 0.4551542047206947 0.5596529993479896
-0.7182622607613277 0.3640566431084075 0.5929267116386843
-0.7390614590003247 0.2625782428995686 0.6203554031167018
-0.7529871608980034 0.1523421169634366 0.6401579609142279
-0.7583981105584547 0.036238124307294 0.6507834541904506
-0.7543844440733412 -0.08183084181278671 0.6513123857784111
-0.7410513956751361 -0.1975663745833336 0.6417245176880263
-0.7195179564246121 -0.3070574235377713 0.6229042053421175
-0.6916278506212127 -0.407408406634544 0.5963801693958165
-0.6595239733565627 -0.4970064306185432 0.5639261800021226
-0.6252630648987777 -0.5754364455544603 0.5271802318003164
-0.5905691444921053 -0.6431867315021599 0.4873796405200269
-0.5567334294149576 -0.7012996907914902 0.445226495469014
-0.5246168112869084 -0.7510656724480437 0.4008460514777755
-0.4947009677708267 -0.7937926296168315 0.3537855475462538
-0.4671456413765969 -0.8306374231693009 0.303012245583427
-0.4418257776605862 -0.8624590047731933 0.2468895446961058
-0.4183343382815002 -0.8896385798005245 0.183138141153296
-0.3959461980784002 -0.9118022792047749 0.1088265218788024
-0.3735536312540097 -0.9273820944922462 0.02049720449518151
-0.3496204573761771 -0.9329931768136049 -0.08537720892211013
-0.3222827409714379 -0.9227488615772593 -0.2113489373756306
-0.2900283750365085 -0.8878432826597683 -0.3572364022739123
-0.2559832852752024 -0.8164471143151518 -0.5175776919325014
0 0 0
0 0 0
-0.300767582879033 0.8281379403760173 -0.4729972651071794
-0.3135783909326981 0.8956654648374202 -0.3153600606253548
-0.3315802804669625 0.9272459887455626 -0.1739810160928878
-0.3504382579569937 0.9350808668670821 -0.05307353181363294
-0.3694991684717487 0.9279760857871268 0.04827782830543079
-0.3890757911448212 0.911527833616282 0.1331804688677684
-0.4096077655687051 0.8888582820402098 0.2053105765281929
-0.4314598765662421 0.8613714767154547 0.268107355390484
-0.4548895614671058 0.829340271464737 0.3244536962265335
-0.4800393773669944 0.7922968568853159 0.3766004338111637
-0.5069146480628336 0.7492714564007482 0.4261805065960133
-0.5353373729301364 0.6989423506650518 0.474229361797718
-0.5648755417884659 0.6397603896612406 0.5211739307656167
-0.5947537165999771 0.5701082112621613 0.5667844775944137
-0.6237633187933049 0.4885496749415508 0.6101135445492636
-0.6502141677920037 0.394205538830644 0.649479429356922
-0.6719949443504651 0.2872385987958564 0.6825809711156675
-0.6868189210507326 0.169331337835368 0.7068285985396964
-0.6926820305839372 0.04392031232521586 0.7199045844216916
-0.6884288324189064 -0.08408499983446226 0.7204133920862237
-0.674166477041223 -0.2091834131719535 0.7083373919874323
-0.6512664036463734 -0.3264514342565712 0.6850412633946553
-0.6219488781967614 -0.432437860031778 0.6528224032008443
-0.5887036888575777 -0.5254619782480479 0.6142618954005918
-0.5538109390012337 -0.6053887365228758 0.5716624192071814
-0.5190779009054991 -0.6731498277248898 0.5267138143484478
-0.4857715664793941 -0.7302503601660922 0.480375266513012
-0.4546699208486742 -0.7783842132418216 0.4328894543083375
-0.4261579879570946 -0.8191790780314031 0.3838424252424166
-0.4003203913701069 -0.8540372120869003 0.3322108135267705
-0.3770056473277081 -0.8840165817820936 0.2763718962147166
-0.3558526930035696 -0.9096914049903461 0.2140803787571312
-0.3362795902996436 -0.9309266691836746 0.1424484950797743
-0.317450620846971 -0.9464987673715545 0.05801022916693404
-0.2982861811929284 -0.9535082879996688 -0.0429802143465997
-0.2777279537493381 -0.9465946758306474 -0.1637855408614459
-0.2559015816882566 -0.9171026501913364 -0.3056748427683821
-0.23790982082672 -0.8525609436430489 -0.4653372481638143
0 0 0
0 0 0
-0.251436834559684 0.8686652145701578 -0.4268492277401789
-0.2639721043707494 0.9256939082669867 -0.2709419057869579
-0.279341210597379 0.9507500339202941 -0.1343237174238033
-0.2950383290093423 0.9553076768351406 -0.01842897162678473
-0.31104228434314 0.9471359530382639 0.0786522969334021
-0.3277468528165287 0.9310540473743549 0.1603756881098018
-0.3455255998283959 0.9096639913001878 0.2304853201291533
-0.3646709456695066 0.8840389053533404 0.2923872692272605
-0.3854022397289744 0.8542351375168814 0.3489232629725397
-0.4078673767099535 0.8196170019158961 0.4023334104771044
-0.4321213256977652 0.7790410588606539 0.4542754544177755
-0.4580772206508463 0.7309604526270591 0.5058281097527497
-0.4854277413374513 0.6735112513501628 0.5574428241934393
-0.5135371193976443 0.6046477582269183 0.6088355405788424
-0.5413167791868264 0.5224006761507904 0.6588426808639505
-0.5671244859582096 0.4253253131690663 0.705314252942808
-0.5887686562282716 0.3131523473088864 0.7451758697234427
-0.6037317463871 0.1875149123550887 0.7748200668857546
-0.609692188770147 0.05241399205164156 0.7909034128070742
-0.6052521081269279 -0.08604786727131802 0.7913694776436393
-0.5905137064145392 -0.2208967346789374 0.7762075722026589
-0.5670865920808696 -0.3460126819301538 0.747454360496751
-0.5375185559134791 -0.4573742452381326 0.7084367310081654
-0.5045520131765977 -0.553343556137742 0.6627504619992952
-0.4705710422122238 -0.6342115047361411 0.6134644745147191
-0.437351671347224 -0.7014689524807484 0.5627297968611141
-0.4060478453641705 -0.7571470167148834 0.5117162713407366
-0.3772969245479409 -0.8033592731475397 0.4607178192500491
-0.3513548452238542 -0.8420378030442849 0.4092946505661599
-0.3282116209689051 -0.8747973162011399 0.3563801164883444
-0.30766774066385 -0.902853410041054 0.3003269573848504
-0.2893664311870684 -0.9269268405084009 0.238901027304556
-0.2727833731226433 -0.9470699662710805 0.1692563450365343
-0.2571828590467115 -0.9623510312322634 0.08796288819017826
-0.2415776487569757 -0.970341739438551 -0.008783411889343087
-0.22482619963277 -0.9664042631043784 -0.1245631575240781
-0.2063331004256497 -0.9428790838103246 -0.2615448049221032
-0.1890963118507124 -0.8881153101414814 -0.41891977840245
0 0 0
-0.08272369394845563 0.8266246325001715 -0.5566403752904365
-0.169743150583602 0.9048504694642955 -0.3904265497378427
-0.2024989247026183 0.9501073629091371 -0.2372555256261235
-0.2209975848929403 0.9696824264522105 -0.1042883469100963
-0.2354657573982452 0.9718504250031036 0.007913817925450898
-0.2490360799148347 0.9631216104413098 0.1018714601917002
-0.2628867509603564 0.9476366337602934 0.1813156543847395
-0.2775667173385617 0.9275894389235494 0.2500690908996731
-0.2933928910178329 0.9038051362557679 0.3115395435219906
-0.3105839593058874 0.8761831794257503 0.3685656526499201