# OOMMF: rectangular mesh v1.0
# Segment count: 1
# Begin: Segment
# Begin: Header
# Title: 
# Desc: time = 2.2e-10
# Desc: stepsize = 4.0381742494573154e-14
# Desc: step = 1406
# meshunit: m
# valueunit: (none)
# valuemultiplier: 384000.0000000001
# xmin: 0
# ymin: 0
# zmin: 0
# xmax: 9.357999999999999e-08
# ymax: 9.357999999999999e-08
# zmax: 2.3395e-08
# ValueRangeMaxMag: 1
# ValueRangeMinMag: 0
# meshtype: rectangular
# xbase: 1.16975e-09
# ybase: 1.16975e-09
# zbase: 1.16975e-09
# xstepsize: 2.3395e-09
# ystepsize: 2.3395e-09
# zstepsize: 2.3395e-09
# xnodes: 40
# ynodes: 40
# znodes: 10
# End: Header
# Begin: Data Text
0 0 0
0 0 0
0 0 0
0 0 0
0 0 0
0 0 0
0 0 0
0 0 0
0 0 0
0 0 0
0 0 0
0 0 0
0 0 0
0 0 0
0 0 0
0 0 0
-0.8243852726702445 -0.004166451901403978 -0.566013747962856
-0.8330152200376325 0.01731300970224549 -0.5529791161343295
-0.8420318568140324 0.0009504545124003677 -0.5394269633106343
-0.8459804532940205 -0.03105560837797914 -0.5323087655043047
-0.8431843078077941 -0.0674280869075489 -0.5333794860722324
-0.8338050485794053 -0.09944072257055478 -0.5430291738554579
-0.8199500268880867 -0.1156721364341619 -0.560626355301802
-0.8079770264466701 -0.09310312692687529 -0.5818117672330416
0 0 0
0 0 0
0 0 0
0 0 0
0 0 0
0 0 0
0 0 0
0 0 0
0 0 0
0 0 0
0 0 0
0 0 0
0 0 0
0 0 0
0 0 0
0 0 0
0 0 0
0 0 0
0 0 0
0 0 0
0 0 0
0 0 0
0 0 0
0 0 0
0 0 0
0 0 0
0 0 0
0 0 0
-0.7806809562732204 0.2013685624740424 -0.5915977912057037
-0.8075720043132889 0.2329683270581199 -0.541805515325525
-0.843173364773411 0.2174669674984232 -0.4916978696147907
-0.8781872959033089 0.1708410973380718 -0.4467665976484332
-0.9082180696047679 0.09031624542452386 -0.4086354290266643
-0.9199175387230558 0.05175522752626878 -0.388681255495321
-0.9267536191916149 0.01523181054119957 -0.3753607881264102
-0.9291436144802259 -0.02499442298130683 -0.3688731794132674
-0.926591463831866 -0.0668487174065568 -0.3700804076616563
-0.9191649595359793 -0.1069372728843609 -0.3790780880363263
-0.907424612428827 -0.1431250428234888 -0.3950896036029891
-0.8905830184217396 -0.1809377425825042 -0.417280985198188
-0.8528922587860046 -0.2597525780353539 -0.4528834210996181
-0.8112186035082343 -0.3059753990220758 -0.4983005443659792
-0.770059059310666 -0.3212896258323404 -0.5511642418608871
-0.739480861273262 -0.2889692884216795 -0.6080006629598546
0 0 0
0 0 0
0 0 0
0 0 0
0 0 0
0 0 0
0 0 0
0 0 0
0 0 0
0 0 0
0 0 0
0 0 0
0 0 0
0 0 0
0 0 0
0 0 0
0 0 0
0 0 0
0 0 0
0 0 0
0 0 0
0 0 0
-0.7607790288501248 0.2948798359422828 -0.5781532250333929
-0.7975752249394567 0.3245661809812983 -0.5084590000442414
-0.8511911873960846 0.2879916635435268 -0.4387873792951156
-0.8840009433543399 0.2679419954910838 -0.3830788681210343
-0.9128173974360886 0.2360407396837595 -0.3332404059347385
-0.9381016230536067 0.1885974606477696 -0.2905104863191713
-0.9575991900623821 0.128955294303642 -0.2576321471845672
-0.9683529814725951 0.07738051392378177 -0.237286239251304
-0.9739430740610679 0.02899558471106764 -0.2249314218950745
-0.9754525719109459 -0.01930146681401375 -0.219362105504
-0.9730162345601875 -0.06777311309270956 -0.2205588638527966
-0.9666385447729906 -0.1157507650650135 -0.2284987618041261
-0.95612720970772 -0.1634934993492386 -0.2430856526557455
-0.940129224564434 -0.2140915651654972 -0.2651826593969964
-0.9145944421967799 -0.2724877811478644 -0.2987765309188028
-0.8835604678750154 -0.3189656429052927 -0.3429020534416454
-0.8495011273233889 -0.3499835276703986 -0.3947902798140732
-0.8117686620289978 -0.3690036723607587 -0.4526233855336287
-0.7520616444663983 -0.4037383468043041 -0.5209593364574857
-0.7111877277090674 -0.3732270604636077 -0.5957462356521505
0 0 0
0 0 0
0 0 0
0 0 0
0 0 0
0 0 0
0 0 0
0 0 0
0 0 0
0 0 0
0 0 0
0 0 0
0 0 0
0 0 0
0 0 0
0 0 0
0 0 0
0 0 0
0 0 0
-0.7694481019581253 0.3765561662294408 -0.5159021923462078
-0.8195215327504093 0.3766592813353782 -0.4318706324147731
-0.8583811393515309 0.3672895428506373 -0.3581622695345462
-0.8952441227943847 0.3364304848085139 -0.2921514838121154
-0.9235779377077865 0.3008759564209528 -0.2376498513090395
-0.9468897364919135 0.2582530490826962 -0.1915859847842855
-0.9661152101228613 0.2073595506956341 -0.1536991135451467
-0.9806661966520955 0.1504558671011116 -0.1251273063674188
-0.9898710285215547 0.09409001646298633 -0.1063128199968097
-0.9946993308945598 0.03898957154051001 -0.09514754032029624
-0.9957873365523049 -0.01552291042974119 -0.09036935107577421
-0.9933531588489009 -0.06976348130245703 -0.09155631317102907
-0.9873920499548208 -0.1237804687384599 -0.0986678024732669
-0.9776496785130152 -0.1779066972752814 -0.1120281802405046
-0.9634023725222032 -0.2328645167693458 -0.1327779554307434
-0.9436433254665946 -0.2880489735447891 -0.162987923301512
-0.9193941761028765 -0.3371438915758276 -0.2026039124035348
-0.8913079077642827 -0.3779498685199415 -0.250447819800084
-0.8582344679090131 -0.4117269677340285 -0.3064547309693145
-0.8162429852576571 -0.4409449365277162 -0.3732491821400767
-0.7725989147594083 -0.4490824792122829 -0.4487937653055507
-0.7177217068768034 -0.4467163408880027 -0.5341535942605661
0 0 0
0 0 0
0 0 0
0 0 0
0 0 0
0 0 0
0 0 0
0 0 0
0 0 0
0 0 0
0 0 0
0 0 0
0 0 0
0 0 0
0 0 0
0 0 0
-0.6704982645497897 0.467710217085923 -0.5759159921977847
-0.7211986062019544 0.503898315209986 -0.4753515102962178
-0.7998818914631849 0.4685423955453223 -0.3750426419567887
-0.8484185602212827 0.4415761802611407 -0.2918842642179018
-0.8841181749321737 0.4114917957312036 -0.2213810172542156
-0.9137975711405938 0.372813799020185 -0.1611951309366635
-0.9379239886309888 0.3284539039619709 -0.1114299085644286
-0.9577562193488757 0.2788089862311884 -0.07048810889281193
-0.9738625818891041 0.223993687569515 -0.03766297286856241
-0.986144574544579 0.1653759065756928 -0.01302642009756682
-0.9944009651691191 0.105609217722049 0.003662458581415668
-0.9988530618231631 0.04591621445998161 0.01357431899422448
-0.9997530032826109 -0.01345371161703539 0.01768982959570858
-0.9972325983407516 -0.07249432450467533 0.01648386244675724
-0.9913039506423211 -0.1312122890780751 0.009990627398604235
-0.9818544707548671 -0.1896232417328123 -0.002196463844183719
-0.9686516279750077 -0.2475337928768669 -0.02100107152883913
-0.9515352409153132 -0.3038359438796528 -0.04758575945592319
-0.9308415862053251 -0.3560437816145127 -0.08226036083309617
-0.9066669903792831 -0.4029315593785766 -0.1249044715505463
-0.8782820012285141 -0.4445397210387834 -0.1760828291935275
-0.8441873399296675 -0.4806679890819939 -0.2372888943341931
-0.803829077567293 -0.5085665236595378 -0.3085756067322356
-0.749812632670835 -0.5334817290275643 -0.3913799441476169
-0.6639858360346351 -0.5666472147875855 -0.4878870192153694
-0.6082242480817258 -0.5298415103880382 -0.5910425009380813
0 0 0
0 0 0
0 0 0
0 0 0
0 0 0
0 0 0
0 0 0
0 0 0
0 0 0
0 0 0
0 0 0
0 0 0
0 0 0
-0.6528547177491053 0.5155011012225655 -0.5550129116976089
-0.7151718559139219 0.5390206120150259 -0.4449561734953043
-0.7659113955455211 0.5442266318901298 -0.342340630534906
-0.8168402377064696 0.5208754857605442 -0.2479127959532443
-0.8566007246174533 0.4875365075242041 -0.168947780145094
-0.8880319951239899 0.4479641470077745 -0.1035726731899055
-0.9140984277191884 0.4024731315661383 -0.04939071581434373
-0.9359350836347289 0.3521367524640208 -0.00502262737475311
-0.9542122262709484 0.2975260152521512 0.03094022435627656
-0.9691856500536854 0.2390665943377304 0.05938298747767855
-0.9807773206503118 0.1776539931555475 0.08071496771902922
-0.9888148730288722 0.1146603244813649 0.09538425900914287
-0.9932475767958323 0.05110877127346626 0.1041496264425532
-0.9941044226565425 -0.0124514162845187 0.1077096053618789
-0.9914293884488419 -0.07572732732916783 0.1064572196496606
-0.9852579493584797 -0.1384996068616541 0.1004222690696152
-0.9756181773723831 -0.2004997179599391 0.08926945210190027
-0.962559303309289 -0.2612376492758699 0.07234969394236189
-0.9462210953399791 -0.3197984468880007 0.04893456959688527
-0.9268538600966165 -0.3749617750880445 0.01859003084516149
-0.9045239260939658 -0.425997108362445 -0.01905074251553182
-0.8788581507469737 -0.4726610928600618 -0.06480618922557427
-0.8489908328105686 -0.5145934244871349 -0.1200340504949334
-0.8135431283852225 -0.5509281836129898 -0.1860798612372576
-0.7691396920398368 -0.581500401793245 -0.2651064255033422
-0.7126661410495307 -0.602760911749403 -0.3588680184533
-0.6565045260383854 -0.5963693397086015 -0.4618932971440929
-0.5889882780515722 -0.5711612829202537 -0.5717233572373386
0 0 0
0 0 0
0 0 0
0 0 0
0 0 0
0 0 0
0 0 0
0 0 0
0 0 0
0 0 0
0 0 0
-0.6136784319023484 0.5628464292916284 -0.5537171473338515
-0.6814254192634639 0.5900505369798236 -0.4330124268325724
-0.7342021513566716 0.5976453417071981 -0.3221292387830098
-0.7777220218935414 0.5876782557061124 -0.2231204258512487
-0.8166992048903736 0.5607061410925512 -0.1364222565145841
-0.8499218784194041 0.5230115859226271 -0.06396625340544421
-0.8781696911143733 0.4783286000080322 -0.004443424629908459
-0.9025624644074741 0.4282785047053309 0.04425517201494291
-0.9237086020318327 0.3738069396237312 0.08384980871497161
-0.9418530247843999 0.3154716383837483 0.1157174363695879
-0.9569738012312131 0.253732473655686 0.1407869865067386
-0.9688663756868309 0.1892553151492032 0.1596257239646542
-0.9772700191057246 0.1229447683409383 0.1727075380366743
-0.9819861467194609 0.05566267362647916 0.1805681987942972
-0.9829116945450884 -0.01191647650755107 0.1836915847668244
-0.9800294270996222 -0.07927166379848748 0.1823686522881754
-0.9733972732628721 -0.1459429968558768 0.1766306600597159
-0.963148706300924 -0.2114380958734109 0.1662483117637064
-0.9495023327668343 -0.275147591181501 0.150794970530709
-0.9327624977914476 -0.3363192064933566 0.1297825645359895
-0.9132611702090457 -0.3941973712277689 0.1027738658683244
-0.8912041853233631 -0.4482872758990822 0.06923596124197692
-0.8665337810861906 -0.4983171009211185 0.02827141959720439
-0.8388501503150896 -0.5439385745843301 -0.02147678736492153
-0.8073168372719169 -0.5844329924787924 -0.08171659292673028
-0.7705045265869238 -0.6184203609895584 -0.1545284168772992
-0.7273695168314953 -0.6424309343514677 -0.2412800873935034
-0.6791395263556563 -0.650339294460585 -0.3403355782487676
-0.6209169545346034 -0.6412889430972721 -0.450788894087528
-0.5475553193124795 -0.6124314217335628 -0.5701849927576275
0 0 0
0 0 0
0 0 0
0 0 0
0 0 0
0 0 0
0 0 0
0 0 0
0 0 0
-0.5735846225217798 0.588316067736009 -0.5699867412933276
-0.6379593072629914 0.631480662081344 -0.4407267812305387
-0.6902934723845434 0.6489690414374467 -0.3198970228668138
-0.7334137412190189 0.6456649602212652 -0.2126524002535448
-0.7702169092279417 0.6264056171379462 -0.1199246244829851
-0.8030925228974896 0.5944409382448715 -0.04101671128578578
-0.8326343174377753 0.5532745600887243 0.02464456499024922
-0.8592626091753272 0.5054608861336268 0.07859428135823525
-0.8833080665567848 0.4524515371229244 0.1226966426224342
-0.9048687682672971 0.3950544667678981 0.1585701122568688
-0.9238292236054232 0.3337623093904671 0.187462760149696
-0.9399139619942172 0.2690053395854128 0.2102328978130439
-0.9527503537418772 0.2013447461048414 0.2274358297645825
-0.9619507504801335 0.1315198161057304 0.2394854726746959
-0.9671957378012543 0.06034319567936614 0.2467612277370345
-0.968284885306513 -0.01140013873632514 0.2495884967776864
-0.9651554764926588 -0.08298155049985823 0.2481712482800294
-0.9578857537409547 -0.1537069887458994 0.2425469941903848
-0.9466926396375168 -0.22288329072924 0.2325856503954089
-0.9319215367712786 -0.2898009363551175 0.2180313431356945
-0.9140144389069732 -0.3537655013946673 0.1985637819254811
-0.8934395199328282 -0.4141919099777078 0.1738127898953793
-0.8705890603771684 -0.470695231840647 0.1432504334167197
-0.8456900538557591 -0.5230352688951533 0.1060303744274123
-0.8187407981934895 -0.5709243353609847 0.06090081006115482
-0.7894544447727229 -0.6137775692541736 0.006226966278211828
-0.7572381332322858 -0.6503880853583782 -0.05988111557699463
-0.7213669015774568 -0.6784592635348048 -0.1390065503217387
-0.6809399788536085 -0.6946963101714227 -0.2317709684862561
-0.6332015868856464 -0.6959177289064306 -0.3387539888462048
-0.5752261753985389 -0.6771016061964418 -0.4589643363297061
-0.5051727015346548 -0.6324243028997737 -0.5872308257626753
0 0 0
0 0 0
0 0 0
0 0 0
0 0 0
0 0 0
0 0 0
0 0 0
-0.6082581062128032 0.6450008470055677 -0.4625969991131744
-0.6434628212018307 0.6883784252345808 -0.3347995540656213
-0.6823315967940291 0.6976729450746961 -0.2183484685710209
-0.7178355584381031 0.6862242593979254 -0.117509050100939
-0.7499382660536508 0.6607322134241769 -0.03202404178162341
-0.7796705361417471 0.6249294856427993 0.03971137175503177
-0.8075918323162034 0.5813132421281165 0.09934961953955779
-0.833889352316742 0.5315413388226916 0.1486349663280643
-0.8585110279692177 0.4766008962653115 0.1892363615543764
-0.8812141366165468 0.4170565326842821 0.2225432406803627
-0.9016057929474617 0.3532822284849572 0.2495969974985292
-0.9191873521923101 0.2856523762969364 0.2711039127080303
-0.9334073182811736 0.2146804448556592 0.2875118863207637
-0.9437295175024968 0.141069112087805 0.2991222215236817
-0.9497076770971575 0.06567003677702306 0.3061744181547917
-0.951046826070904 -0.01058796076684904 0.308865390918534
-0.9476407737629312 -0.08675407045340555 0.3073283181904299
-0.9395868918407336 -0.1618879592759551 0.3016102805319074
-0.9271808027270787 -0.235083536806048 0.2916701729301936
-0.9108897599890532 -0.3055023953970153 0.2773952623131306
-0.8913005844473482 -0.3724264702599326 0.2586151434342977
-0.8690431204706722 -0.4353201267825393 0.2350753963745039
-0.8447045760323522 -0.4938559807823139 0.2063503076700947
-0.818757260159683 -0.547854554433484 0.171732163913164
-0.7915042156961934 -0.5971431353840368 0.1301581822202335
-0.7630304184546302 -0.6413674858923067 0.08020179893950856
-0.7331548558273924 -0.6797632350665744 0.02014700048493622
-0.7013786795831524 -0.7109040408298187 -0.05180147254691652
-0.6667540970477944 -0.7325145741220813 -0.1373367131131575
-0.6278146268626548 -0.7410499030670934 -0.2381046733299385
-0.5843911165779786 -0.7298788334288725 -0.3546320788891653
-0.5443879353983267 -0.6851620038145351 -0.4839367771947053
0 0 0
0 0 0
0 0 0
0 0 0
0 0 0
0 0 0
0 0 0
-0.4906334975954363 0.7062711686295253 -0.5103526304428667
-0.5748211985019578 0.7322843562329032 -0.3651577896873278
-0.6218969467052864 0.7457329488107411 -0.239011624689424
-0.6585556067366358 0.7413268792953426 -0.1293791747924297
-0.6906611782291002 0.7222777314562924 -0.0360834522952422
-0.7203759923965884 0.6922915617289026 0.04231811831340505
-0.7488049612691674 0.6539457241152439 0.1079171899655914
-0.7764148953551626 0.6088497210113585 0.1627326872359158
-0.8032407491151861 0.5579560844272801 0.2085408996131268
-0.8290303000437959 0.5017853788986131 0.2468201675975212
-0.8533314293154968 0.4406193024110128 0.2787115033241421
-0.8755479885168936 0.374671818573496 0.3050192586884479
-0.8949869621482966 0.3042357992919587 0.3262497754999166
-0.9109132532160349 0.2297932154039471 0.3426837073303818
-0.9226205058320095 0.1520676427902367 0.3544669719938761
-0.9295137607135572 0.07201069133841076 0.3616885801032479
-0.931187753329023 -0.009256540627559203 0.3644223984686677
-0.9274846925377095 -0.09052074645519678 0.3627370115792213
-0.9185211053737629 -0.1705567523623863 0.3566922668163079
-0.9046795315284781 -0.2482077038545578 0.3463349260191076
-0.8865649469036804 -0.3224625321802227 0.3316933979770972
-0.8649313068444776 -0.3925253448806662 0.3127581942437609
-0.8405908162469939 -0.4578597904757436 0.2894330525470792
-0.8143248541830157 -0.5181859895068975 0.2614542257041707
-0.786812125362543 -0.5734149232840435 0.228302442250695
-0.758574199133246 -0.6235325218200573 0.1891358734933006
-0.729924996945808 -0.6684529622150123 0.1427590142149952
-0.7009058872212535 -0.7078501839777787 0.08763021340389412
-0.6711848341401467 -0.7409660932287987 0.02191271561251008
-0.6398979098622629 -0.7663833216815443 -0.05645590493712177
-0.6054483482225069 -0.7817016587703758 -0.1495821323229494
-0.5651747503804476 -0.78330289371027 -0.2588707751707707
-0.5129102642868801 -0.7677050110511917 -0.3841250796238804
-0.4220610851011857 -0.7389979926394223 -0.525115613287316
0 0 0
0 0 0
0 0 0
0 0 0
0 0 0
-0.4172976504259169 0.7069651909312847 -0.5710191675946625
-0.4911040399833168 0.7623186757268127 -0.4215294278578701
-0.5491657451507117 0.7873368844558379 -0.2802099475900842
-0.5911249367523937 0.7909738356921699 -0.157897752991911
-0.6249586985389161 0.7787608672042406 -0.05438875648369667
-0.6550961261440978 0.7548528628280787 0.0323453395599646
-0.6837111397115381 0.7221787433254417 0.1048662964123138
-0.7118317993528537 0.6825201900100165 0.1657156590632569
-0.7398260527349858 0.6368174558002414 0.2170735812637665
-0.7676334400531912 0.5854815316201076 0.2606727408914786
-0.7948955997911038 0.5286271446344267 0.2978159287015956
-0.8210348132539202 0.4662489581801429 0.3294142444112451
-0.845305929902179 0.398368974233042 0.356033769803829
-0.8668436786480838 0.325165711827576 0.3779540932964254
-0.8847226095641149 0.2470794904236076 0.3952437596446943
-0.8980401155313508 0.1648751939662954 0.4078481596268571
-0.9060194046024712 0.07964712330605025 0.4156743608076567
-0.9081161864636552 -0.007236265742616898 0.4186557396487114
-0.9041048220102639 -0.09423592815140838 0.4167901878202404
-0.8941220176718294 -0.1797769086459547 0.4101537280485945
-0.8786550947496163 -0.262391145422812 0.3988936089664097
-0.8584764619790106 -0.3408451091383702 0.3832006991179068
-0.8345398018340726 -0.4142290565456352 0.3632596975554259
-0.8078628200710094 -0.4819925908267874 0.3391766594785037
-0.7794212997131955 -0.5439189185247935 0.3108933058530075
-0.7500688912987518 -0.6000459112649053 0.2781035107296026
-0.7204808485484104 -0.6505518473038246 0.2401866791571575
-0.6911067140736836 -0.6956243209479313 0.1961588995381159
-0.6621111225467994 -0.7353153751486552 0.1446380325841361
-0.6332797627336593 -0.7693706750524275 0.08381829443129964
-0.603866747105692 -0.7970027691299462 0.01146899032990303
-0.5723450289595673 -0.8165795924664089 -0.07495956905335746
-0.5359371984131689 -0.8252903742284934 -0.1779525711048771
-0.4896128536471512 -0.8189783930862804 -0.2992551506679656
-0.425160017641436 -0.791879364299655 -0.4383674620629452
-0.3445829466779927 -0.7346239342233883 -0.5844572423410134
0 0 0
0 0 0
0 0 0
0 0 0
-0.4446433779164424 0.7488384734227892 -0.4914602803857928
-0.4809967731996452 0.8068937988765014 -0.3428768022281135
-0.5202757795881815 0.8286305932333321 -0.2066021614884168
-0.5545109658200437 0.8273266312613414 -0.08971195010188086
-0.5848399335443413 0.8111086722156768 0.008060644414181861
-0.6132872564262024 0.7847827482430429 0.08941352898369323
-0.641228039728296 0.7510220717439082 0.1574561806335169
-0.6693765796965258 0.7111390322857751 0.2149796997705405
-0.6979602361749465 0.665611780354901 0.2642204885533887
-0.7268473368235568 0.6144433138295723 0.3068425704537037
-0.7556241452138165 0.5574029094300565 0.3439973077348091
-0.7836401694960772 0.4942009785255045 0.3763953740106178
-0.810040778492146 0.424635212394089 0.4043746697987704
-0.8338054447468897 0.3487264351155902 0.4279700383928918
-0.8538100671807263 0.2668410927807272 0.4469946312702542
-0.868925281290165 0.1797809496949732 0.4611373609474524
-0.8781501122316593 0.08881216154303818 0.4700689102137869
-0.8807609428377652 -0.004387269026449934 0.473540825528296
-0.8764404865727894 -0.09786660176206366 0.4714596501882186
-0.8653469706304989 -0.1896067186587095 0.463922313173332
-0.8480986058719359 -0.2777459614921831 0.4512049817908279
-0.8256761357729064 -0.3607721745993865 0.433707685947517
-0.7992739698891126 -0.4376397390158746 0.4118647592254215
-0.7701418329374519 -0.5077947797367367 0.3860388825388716
-0.739452080468351 -0.5711200273041945 0.3564162385513365
-0.708208589314809 -0.6278252783201688 0.3229179677920235
-0.6771929816864439 -0.6783141981708397 0.2851306965489229
-0.646930626204122 -0.7230458623241868 0.2422507912371297
-0.6176543881927425 -0.7623927153729674 0.1930295425381361
-0.5892449217154547 -0.7964745776439864 0.1357153985345098
-0.5611291188497453 -0.8249297224216654 0.068007830756628
-0.532124119960621 -0.8465679300698919 -0.01290971468749496
-0.5002566890511555 -0.8588464705608184 -0.1101180505857244
-0.4628544284774872 -0.8570795294124418 -0.2262309843963146
-0.4184372652322143 -0.8331941924512726 -0.3615213586089444
-0.376125517911466 -0.7736416329198236 -0.5099100102851288
0 0 0
0 0 0
0 0 0
-0.3298731456104496 0.744544694162802 -0.5803765210611868
-0.4079445486218419 0.8100745675339837 -0.4211418291791387
-0.4500305575563651 0.8500106884059426 -0.2737778786921291
-0.4830463801112981 0.8637940895962195 -0.143268857188187
-0.5121421514474845 0.8582897171704326 -0.03239101897502304
-0.539432058657713 0.8398863127043187 0.0600336224481289
-0.5662753696914735 0.8127485250510155 0.1370110970256922
-0.5935173620660611 0.7791092725846717 0.2018065467191972
-0.6215888166978699 0.739895450450016 0.2572587517646576
-0.6505903444212805 0.6952370440888712 0.3055775781571154
-0.680344627486506 0.6448147092398764 0.3483463486218001
-0.7104189949661882 0.5880928780190126 0.3865897288011481
-0.7401310821555771 0.5244930499201711 0.4208479794565382
-0.7685518979914473 0.453549134720685 0.4512440165673797
-0.7945251206006558 0.3750663326046331 0.4775511269812098
-0.8167233848982975 0.2892828283444102 0.4992778362648654
-0.83376033035845 0.1970087726932978 0.5157821778643079
-0.8443619084075867 0.09969881772192195 0.5264153430278689
-0.8475746526892758 -0.0005904568292015204 0.5306758516075385
-0.8429576976606197 -0.1013839888481225 0.5283404269596932
-0.8306919713327474 -0.2000909251115664 0.5195329349052964
-0.8115598483728775 -0.2943479414026304 0.5047077390936516
-0.7868006509291851 -0.3823026074478516 0.4845507734345122
-0.7578957844345818 -0.4627640851947556 0.4598297308680143
-0.726353140136624 -0.5352088846860252 0.4312337713663049
-0.6935409718517115 -0.5996756822677212 0.3992367674196936
-0.6605886922804927 -0.6566038638217218 0.3639971780735866
-0.6283441163220174 -0.7066606055758193 0.3252913463508047
-0.5973632938372766 -0.7505810944256182 0.2824625919776292
-0.5679071807863486 -0.7890197258509605 0.2343700199030936
-0.5399239959830233 -0.8223891515366383 0.1793269695181733
-0.5130015296090487 -0.8506433155557148 0.1150451229698878
-0.4862818058646194 -0.8729472044913756 0.03864173204886949
-0.4583525644463833 -0.8871799195775107 -0.05314806641699015
-0.4271787389615127 -0.8893022273437913 -0.1632785148775652
-0.3900441868549021 -0.8730003032903986 -0.2928071084443991
-0.3417355335863272 -0.8311954694575748 -0.4385554886643985
-0.2564105690880477 -0.7634266398509633 -0.5928181724827695
0 0 0
0 0 0
-0.3582588557901101 0.7760693719662738 -0.5190057053095219
-0.3863096229361854 0.8488854998306998 -0.3607745603615707
-0.414322879295715 0.884202712719226 -0.2156898572303989
-0.4401376058367985 0.8933938885824153 -0.0901457030137407
-0.4647888827719078 0.8852882213443724 0.01536423120623823
-0.4893180930755578 0.8659779844613289 0.103198518483522
-0.514478606874595 0.8390920322272292 0.1767380109686489
-0.5407424720085102 0.8064289075616989 0.2393115041425508
-0.5683422210931312 0.7685792541103159 0.2937227432020825
-0.5972991892043702 0.7253883372235163 0.3421190418493303
-0.6274262431865556 0.6762648802557271 0.3860079287961737
-0.6583091379353301 0.6203900108450219 0.4263159783007855
-0.689275065823168 0.5568824344730128 0.4634456147272059
-0.7193621819336343 0.4849634912997245 0.4973212878110712
-0.7473095661463549 0.4041488877800785 0.527439180240027
-0.7715960870879809 0.3144688421997436 0.5529455901588051
-0.7905576602951782 0.2166858610259131 0.5727703059517596
-0.8025994165020438 0.1124420033652826 0.5858250357485419
-0.8064806012232488 0.004247278284333238 0.5912452963684044
-0.8015975265865171 -0.1047570045091914 0.5886147937120159
-0.7881536866909282 -0.2112405455372406 0.5780927244626303
-0.7671341024947884 -0.3122025824619238 0.5603880943539228
-0.7400914490936307 -0.4053844694602802 0.5365893018863651
-0.7088383550867505 -0.4894590995080514 0.5079153239140131
-0.6751575924626086 -0.563993206688215 0.4754722790548762
-0.6406006735564218 -0.6292609750267334 0.4400697698632152
-0.6063887419920349 -0.6860021498629936 0.4021116063590658
-0.573392574293091 -0.7351929448332796 0.3615415461781842
-0.5421553864284538 -0.777856672924826 0.3178152503466972
-0.5129264322826833 -0.814909030695513 0.2698698700423175
-0.4856821194386707 -0.8470079448705979 0.2160796616612639
-0.4601204843936608 -0.8743626021574756 0.1542049927523433
-0.4356222364826107 -0.8964430700361284 0.08138236458895169
-0.41118736273092 -0.9115327787066092 -0.005739867054043523
-0.3853932321399505 -0.9161093467893767 -0.1105247544483283
-0.3565046267213587 -0.9041839177932206 -0.2352783328960975
-0.3231726193521724 -0.8669254121276745 -0.3794730397647738
-0.2887373931487758 -0.7925572593058217 -0.5371067943335787
0 0 0
0 0 0
-0.339635514533469 0.8183840959634521 -0.4635678901106816
-0.3526190502628476 0.8840238494130382 -0.3068576853537822
-0.371432391729358 0.9134850093738633 -0.1660816546866064
-0.3917082891184888 0.9189503151445606 -0.04577045478885787
-0.4127314013947213 0.9091986268088329 0.05486936587643201
-0.4347259126250559 0.8897926118407385 0.1388614014258403
-0.4580259030418138 0.8638294501892048 0.2097878765051661
-0.4828788595822236 0.8327080600770752 0.2709710199472352
-0.5094136066506887 0.7967273547950476 0.3251511948008548
-0.5376293256335137 0.7554922932730838 0.3744143467120746
-0.5673701239030565 0.7081733111001883 0.4202162585474603
-0.5982797359505538 0.6536811493221256 0.4634245489525134
-0.629741515440092 0.5908144443723274 0.5043450367082379
-0.6608139555547698 0.5184289498870387 0.5427304488077673
-0.6901838435786404 0.4356637372667705 0.5777918051459064
-0.7161725984628171 0.3422359546993671 0.6082527110683755
-0.7368438565451723 0.2387707438769604 0.6324947928165735
-0.7502503499678124 0.1270705080372378 0.6488277879070327
-0.7548104321298285 0.01017224874676751 0.65586411466356
-0.7497146046576909 -0.1079438469193531 0.6528982596662464
-0.7351865281301566 -0.2229966507391196 0.6401353471064236
-0.7124511873720926 -0.3311836233920955 0.6186523362996198
-0.6834226286134675 -0.4297776016908266 0.5901056886558027
-0.6502714790745323 -0.5173502037707776 0.5563234402400771
-0.6150477677112505 -0.5936502651325779 0.5189369963121025
-0.5794496296770459 -0.6592892071290493 0.4791407601428662
-0.5447391159184943 -0.7153885485489437 0.4375825867117799
-0.5117580624072305 -0.7632808264881655 0.3943425737562958
-0.4809910257934119 -0.8042914057634242 0.3489455082406079
-0.4526345901091953 -0.8395835584277628 0.300368733816381
-0.4266493021588763 -0.8700282715492081 0.247024653976968
-0.4027814507920579 -0.8960475043824487 0.1867243229679258
-0.3805520709974665 -0.9173721961329528 0.11665493998002
-0.3592263314598064 -0.9326506817262148 0.03345367934257359
-0.3378276781110237 -0.9388576490743404 -0.06647386461397442
-0.3154117305557801 -0.9305167758458436 -0.1861557683695665
-0.2922519525262045 -0.8988867181773456 -0.3264834821686726
-0.273686659915393 -0.8314640298700134 -0.4834906195746439
0 0 0
0 0 0
-0.2906544312929335 0.8613072596148816 -0.4167370947065835
-0.3036152710620386 0.9162623632116011 -0.2613064272837856
-0.3201583137716247 0.9390746013282041 -0.1250501789810153
-0.3376980774451851 0.941205557713134 -0.009597219375119523
-0.3561473795043676 0.9303796179141974 0.08690690790727638
-0.3758230940739926 0.9113610366965175 0.1678632263245861
-0.3970125659899356 0.8867040526025347 0.2369323649152394
-0.4199145562668018 0.8574517702753539 0.2974024665111514
-0.4446443635206934 0.8236587869613234 0.3519624875617832
-0.4712291473137972 0.784730910518298 0.4026667217427264
-0.4995781038629706 0.739631906581003 0.4509615958238894
-0.5294276191270902 0.6870178379149621 0.4977076315389097
-0.5602633176232272 0.6253576026964065 0.5431692955935725
-0.5912274648487206 0.5530950685207399 0.5869718306585016
-0.621031302462062 0.4689036090480523 0.6280521688394888
-0.6479154180014458 0.3720633270149167 0.6646611857229233
-0.6697248323570704 0.2629375008041686 0.6945016339758688
-0.6841721050530857 0.1434245559613639 0.7150789658593761
-0.6893073118284233 0.01714810542088082 0.7242660922204952
-0.6840801789447809 -0.1108778583684617 0.7209302388570613
-0.6687278467306527 -0.2351688224878778 0.7053358717211604
-0.6447376516740501 -0.3509370698894577 0.6790850708793653
-0.6144021814190432 -0.4549411681591828 0.6446227524540836
-0.5802335292125363 -0.5457237907897124 0.6045780311454185
-0.5444961877812833 -0.6233396326343003 0.561223310170724
-0.5089633364363336 -0.6888547597502639 0.5161738487496256
-0.4748668951050677 -0.7438526830840835 0.4703026874278757
-0.4429616978844289 -0.7900612184787222 0.4237784860788243
-0.4136302367296135 -0.829112712673453 0.3761411130762919
-0.3869823215159039 -0.8624007051347993 0.3263582488878778
-0.3629260315064291 -0.8909780225452488 0.2728421869805916
-0.341201303440649 -0.9154396718111236 0.2134288588845096
-0.3213731819053212 -0.9357308759897089 0.1453513180937171
-0.3027921696508976 -0.9508186969204903 0.06527409581543606
-0.2845572448684381 -0.9581743638890735 -0.03048053114125148
-0.2656182512562559 -0.9530645488390557 -0.1453097049263251
-0.2454943773969035 -0.9277492963163616 -0.2810938523892018
-0.2274059257096495 -0.8704946523710749 -0.4364923884164516
0 0 0
-0.1237333728290961 0.8253980546399425 -0.5508249303044787
-0.2096790897131592 0.9005559274321208 -0.3808329041770594
-0.2427877834366299 0.9432027847547831 -0.2267655155546145
-0.2626472450023861 0.9603300751890677 -0.09371537429907452
-0.2792764034603977 0.9600371100021081 0.01826028173454742
-0.2956995880319863 0.9487148230782523 0.1118120660273923
-0.3130151516399691 0.9304109698595786 0.1906749642946477
-0.3317016148185096 0.9072457149795868 0.2586102306135066