# OOMMF: rectangular mesh v1.0
# Segment count: 1
# Begin: Segment
# Begin: Header
# Title: 
# Desc: time = 2.7999999999999996e-10
# Desc: stepsize = 3.172715140136904e-14
# Desc: step = 1790
# meshunit: m
# valueunit: (none)
# valuemultiplier: 384000.0000000001
# xmin: 0
# ymin: 0
# zmin: 0
# xmax: 9.357999999999999e-08
# ymax: 9.357999999999999e-08
# zmax: 2.3395e-08
# ValueRangeMaxMag: 1
# ValueRangeMinMag: 0
# meshtype: rectangular
# xbase: 1.16975e-09
# ybase: 1.16975e-09
# zbase: 1.16975e-09
# xstepsize: 2.3395e-09
# ystepsize: 2.3395e-09
# zstepsize: 2.3395e-09
# xnodes: 40
# ynodes: 40
# znodes: 10
# End: Header
# Begin: Data Text
0 0 0
0 0 0
0 0 0
0 0 0
0 0 0
0 0 0
0 0 0
0 0 0
0 0 0
0 0 0
0 0 0
0 0 0
0 0 0
0 0 0
0 0 0
0 0 0
-0.8402719291246918 0.01046594366908253 -0.5420641559337636
-0.8491199914663609 0.02852261553634179 -0.5274293322286243
-0.8582788628327512 0.009212478235695029 -0.5131008905266832
-0.8623241153372608 -0.02553223209927082 -0.5057125915298518
-0.8595912439477329 -0.06457869811036106 -0.5068850807419364
-0.8502374890024861 -0.09932012735228468 -0.5169446049602149
-0.8363504524208056 -0.1184918137257271 -0.5352360328074901
-0.8242512307911024 -0.09939009503610176 -0.5574329713499793
0 0 0
0 0 0
0 0 0
0 0 0
0 0 0
0 0 0
0 0 0
0 0 0
0 0 0
0 0 0
0 0 0
0 0 0
0 0 0
0 0 0
0 0 0
0 0 0
0 0 0
0 0 0
0 0 0
0 0 0
0 0 0
0 0 0
0 0 0
0 0 0
0 0 0
0 0 0
0 0 0
0 0 0
-0.791082813323477 0.2230590658806174 -0.5695898836818282
-0.8180845376461968 0.2515504825870729 -0.5171653932490249
-0.8536777276901014 0.2334992217340497 -0.4655238454638573
-0.8886388171182084 0.1848528200962352 -0.4197028563319763
-0.9187723744488656 0.1029165363025552 -0.3811371282164433
-0.9306728454785307 0.06197354914856675 -0.3605652976852106
-0.9376527558136345 0.02291546124911316 -0.3468172301815994
-0.9401513747097721 -0.01983942016901375 -0.3401790558495371
-0.9376842683246245 -0.06421156443540041 -0.3415041550688241
-0.9303113871331138 -0.1068367922456102 -0.3508655337777272
-0.9185679490648672 -0.1455933060897834 -0.3674717841856834
-0.9016383852306513 -0.185892799720824 -0.3905023550385024
-0.863914001237703 -0.2663771963275521 -0.4274292780591125
-0.8222374140313358 -0.314589663033348 -0.4742984069967193
-0.7809991233089465 -0.3322570900077696 -0.5288152754320028
-0.750258029329158 -0.3027911342622671 -0.5877332885240527
0 0 0
0 0 0
0 0 0
0 0 0
0 0 0
0 0 0
0 0 0
0 0 0
0 0 0
0 0 0
0 0 0
0 0 0
0 0 0
0 0 0
0 0 0
0 0 0
0 0 0
0 0 0
0 0 0
0 0 0
0 0 0
0 0 0
-0.7662666087490438 0.3189955210458491 -0.5577430787279449
-0.8030931644504602 0.345982143119299 -0.4851161983025534
-0.8567463520680439 0.3076743520658053 -0.4139108373780344
-0.8895602752920495 0.2853641386479802 -0.356720934339476
-0.91834327109341 0.2512641091337535 -0.305797292170281
-0.9436277760897852 0.2018449984830458 -0.2623456056030377
-0.9632540588096382 0.1403854541965959 -0.2289837165319243
-0.9742274248340865 0.08670368226614347 -0.208238796055479
-0.9800154770219831 0.0360430498161921 -0.1956286363427446
-0.9816767236680358 -0.01459780930359096 -0.1899939845677382
-0.9793424320703696 -0.06543548030132819 -0.191328509805066
-0.9730116309041068 -0.1157776973093474 -0.1996093458009291
-0.9624865456224772 -0.1658461500948415 -0.2147433444706258
-0.9464336038177223 -0.2186392492125682 -0.2376137880434598
-0.9209026740123442 -0.2789538182662891 -0.2722554540713031
-0.8899174660899697 -0.3273842613314413 -0.317594787394997
-0.8558713429846397 -0.3604789012366867 -0.3708627859746231
-0.818057229814364 -0.3816269006658829 -0.4302827877531247
-0.7581293476955002 -0.4180906347976167 -0.5004399197279537
-0.7170593140898878 -0.3899944583607701 -0.5776939176803131
0 0 0
0 0 0
0 0 0
0 0 0
0 0 0
0 0 0
0 0 0
0 0 0
0 0 0
0 0 0
0 0 0
0 0 0
0 0 0
0 0 0
0 0 0
0 0 0
0 0 0
0 0 0
0 0 0
-0.7706372667124882 0.4005087391786827 -0.495692397556596
-0.820665523534538 0.3987128448591168 -0.4093118197977329
-0.8594241436080856 0.3873118018273892 -0.3337359877938386
-0.8962528778433082 0.3546285568831345 -0.2664007612612487
-0.9246343671793208 0.3171693914597609 -0.2108432217358223
-0.9480412597991511 0.2726361522691886 -0.1639734679583545
-0.9674212330021361 0.2198808913584608 -0.1254932330926041
-0.982208585845567 0.1611151440183258 -0.09647903533516765
-0.9916974052213084 0.1027409016386756 -0.07733410378219513
-0.9967838157717995 0.04549092584366414 -0.06597423952799199
-0.9980640953206501 -0.01125949792896329 -0.06116604726610439
-0.995740882863888 -0.06777449531945344 -0.0625036957118351
-0.9898064716427182 -0.1240551107710402 -0.06995340010161814
-0.9800165503681626 -0.1803826052407516 -0.0838431674678675
-0.9656814727754748 -0.2374195305686479 -0.1053150494599532
-0.9458546017563386 -0.2945262371271987 -0.1364308175598554
-0.9215644261232016 -0.345480972506813 -0.1770929308017685
-0.8934317145567242 -0.3881347123603709 -0.226122127367411
-0.8602865350030308 -0.4237243052262769 -0.2834868442326514
-0.818212611707848 -0.4546592204308156 -0.3518708787601851
-0.7744695410476322 -0.4646355359823938 -0.4293142772979052
-0.7193513352757523 -0.4640308528763619 -0.5169226480004795
0 0 0
0 0 0
0 0 0
0 0 0
0 0 0
0 0 0
0 0 0
0 0 0
0 0 0
0 0 0
0 0 0
0 0 0
0 0 0
0 0 0
0 0 0
0 0 0
-0.6681998624139005 0.4924034609849126 -0.5577165727142447
-0.7187126695793712 0.5262940544512223 -0.4543860328348425
-0.797065603337309 0.4899788973547669 -0.3529973146123603
-0.8454409935363512 0.4616596710521394 -0.2685141980832623
-0.8810923927956366 0.4300557038588844 -0.1967950378848473
-0.9108467092664901 0.3898350072334711 -0.1355984489353942
-0.9351646630112028 0.3438659729316577 -0.08498968004944651
-0.9552682797038502 0.2925455175318548 -0.04335474557260287
-0.971703815789967 0.2359922004028822 -0.009968737544099045
-0.9843554675069077 0.1755444071498427 0.01511537983864896
-0.9929831752703577 0.1138050696791741 0.03213751305430462
-0.9977532905398816 0.0519991196830636 0.04224290199577234
-0.9988776635710662 -0.009582910215273492 0.04638513825152529
-0.9964684193386241 -0.07087838304737878 0.04502159567776976
-0.9905362625847671 -0.1318341815328904 0.03817932796885837
-0.9809851196288801 -0.1924065579913228 0.02545410592895556
-0.967617506395031 -0.2523512213350839 0.005934846969641689
-0.9503176188103952 -0.3105374018065136 -0.0215161673585121
-0.9294439009911768 -0.364505995528674 -0.05717879094518555
-0.9050961922807399 -0.4130558390207532 -0.100924509261956
-0.8765523792637796 -0.4562297788163255 -0.153330738367142
-0.8423294435673688 -0.4938249750217025 -0.2159120250108855
-0.80185922321159 -0.5231212711483003 -0.2887315739968376
-0.7476949403661567 -0.549251516597392 -0.3731957230011
-0.6616189745805705 -0.5832195469150997 -0.4712910911221423
-0.6056387997514253 -0.5480951573459156 -0.5768824340622691
0 0 0
0 0 0
0 0 0
0 0 0
0 0 0
0 0 0
0 0 0
0 0 0
0 0 0
0 0 0
0 0 0
0 0 0
0 0 0
-0.6471792984761098 0.5398642844061138 -0.5382429842056879
-0.7093033849428756 0.5617453993684733 -0.4258295602667019
-0.7597160933652882 0.5652687327547026 -0.3214074007419189
-0.8103595021254529 0.5406679177014466 -0.2258222311539964
-0.8500125353258446 0.5061693120055905 -0.1458468970280686
-0.8815141242600087 0.4654105127503575 -0.07953554772275404
-0.907808100823887 0.4186699830062517 -0.02449280318933454
-0.9300005744949337 0.3669769226335549 0.02066082509239256
-0.9487199348701959 0.3108763583713405 0.05732691327521826
-0.9641825542196552 0.2507789341077883 0.08638245392568078
-0.9762722575187278 0.1875627273463449 0.1082252397072272
-0.9847711223595704 0.1225876946625981 0.1232805486846203
-0.9895788820903517 0.05689457009806839 0.1322748805108707
-0.9906855045748449 -0.008919769255898227 0.1358774033520878
-0.9881143677105331 -0.07449722472737637 0.134462484849609
-0.9819005514033912 -0.1395467222255899 0.1280547518439266
-0.9720913065477108 -0.2037313443660444 0.1163272584443041
-0.9587712510958181 -0.2665057462185299 0.09865280180848132
-0.9421222524508993 -0.3269250505823685 0.07433486892810719
-0.9224289379153321 -0.3837684971256526 0.04297202706772737
-0.8997830885705598 -0.4363170931387187 0.004217553485420566
-0.8738356345850009 -0.4843394038174034 -0.04273904115946147
-0.8437424721266028 -0.5274914738520804 -0.09925414723349463
-0.8081285918417854 -0.5649319035909225 -0.1666737032436395
-0.7636059770494386 -0.5965028927067758 -0.2471643396746794
-0.7070335067350906 -0.6187065312812 -0.3424994138737549
-0.6507534363782663 -0.6134745685631466 -0.4474024125640563
-0.5829084163144076 -0.5893771280963043 -0.5593320829943346
0 0 0
0 0 0
0 0 0
0 0 0
0 0 0
0 0 0
0 0 0
0 0 0
0 0 0
0 0 0
0 0 0
-0.6050327076280216 0.586512040028312 -0.5384598867159298
-0.672554728264152 0.6123286717486049 -0.4156004514484088
-0.7249927296520294 0.6185207436031669 -0.3030142433686639
-0.7682040691084875 0.6072649219018134 -0.2027111808281578
-0.8069969227463076 0.5792441757914398 -0.1150310892310633
-0.8402244377346778 0.5406329388037405 -0.04170035627994978
-0.868669788278971 0.4950392970510901 0.01867868588872159
-0.8934289025158046 0.4439924223877336 0.06823140780957442
-0.9150740201687588 0.3883701562410901 0.1086653548903995
-0.9338043226196796 0.328686598254508 0.1413315505634895
-0.9495490048755885 0.265376852359937 0.1671281351876782
-0.9620528187235944 0.1990962298741657 0.1865879557631729
-0.9710018527107274 0.1307563450261578 0.2001453978180225
-0.9761459840577075 0.06125312621053109 0.2082956368660799
-0.9773418364409667 -0.008678329698204838 0.2114890572484713
-0.9745505360107892 -0.07843786023651918 0.2099970353185942
-0.9678304182380426 -0.1474798784549458 0.2038479015935392
-0.9573366921122408 -0.2152308131972847 0.1928267486269148
-0.9433264280772867 -0.2810163134493009 0.1765363465870731
-0.9261506337163723 -0.3440436167218164 0.1545282933955235
-0.9061865091443739 -0.40354373011397 0.1264059671472688
-0.8836800373559672 -0.459027389954099 0.0916703160815063
-0.8586086799385392 -0.5102410918223151 0.04944858896035396
-0.8306005916160495 -0.5568663220135583 -0.001598941574917055
-0.7988333138092883 -0.5982262302094064 -0.06317210015436152
-0.7618757901554749 -0.6329915587294147 -0.1373570782751149
-0.7186606957521803 -0.6577635067915955 -0.2255525958933178
-0.6703577885996724 -0.6664962614564189 -0.3261949857498936
-0.611962834519028 -0.6582617536267505 -0.438398167057837
-0.5382032110571902 -0.6301645656401375 -0.5596694772982584
0 0 0
0 0 0
0 0 0
0 0 0
0 0 0
0 0 0
0 0 0
0 0 0
0 0 0
-0.5622800427898942 0.6113514007199988 -0.5568578079886188
-0.6264842676752396 0.653172355029625 -0.4253038172653423
-0.6784595595692169 0.6693557467779216 -0.3027466106903831
-0.7212255567081284 0.664917725832225 -0.1942115192905703
-0.7577801251449364 0.6447285288767297 -0.1004709211054193
-0.7905678588890142 0.6120247804650517 -0.02069126840830639
-0.8202135705381003 0.5702192247610289 0.04582285912152766
-0.8471385263700698 0.5217493886092642 0.1006672371002861
-0.8716529910308104 0.4679621986484954 0.145713567875841
-0.8938199181468894 0.4095841919160683 0.1825561383694023
-0.9134771293725992 0.3470518542639758 0.2124018468967046
-0.9302943153261899 0.2807637957712642 0.2360596912983809
-0.9438388486245347 0.211273047866739 0.2540313505695914
-0.9536608955336207 0.1393375219053769 0.2666757419025594
-0.9593830269629704 0.06581849132822554 0.2743212237043356
-0.9607597691519335 -0.00842180674019213 0.2772539254011624
-0.9577044071821954 -0.08255797970142946 0.2756563956294454
-0.9502962893292433 -0.1557918317226214 0.2695660728941622
-0.9387779721075641 -0.2273331122933363 0.2588736663715225
-0.9235396248296676 -0.2963941380542491 0.2433620272280677
-0.9050783958144039 -0.3622304002027466 0.2227604870684715
-0.8839188474599133 -0.4242362203192646 0.1967513671473775
-0.8605047479311615 -0.4820318295887753 0.164854159945163
-0.8351064515675966 -0.5354018228184799 0.1262620397143414
-0.8077542014156321 -0.584099879645096 0.07975262186272075
-0.7781780472636946 -0.6275960715382777 0.02370860068801603
-0.7457842975955129 -0.6647487171351105 -0.04375985063036086
-0.7098254115237782 -0.6933308915655765 -0.1242584401800569
-0.6693514166606692 -0.7101024160956125 -0.2184564937682748
-0.6215318320794639 -0.7118852732878621 -0.3269824756585744
-0.5633441508696445 -0.6936471289366832 -0.4488842035523802
-0.4928148682763585 -0.6495448535626321 -0.578986173251187
0 0 0
0 0 0
0 0 0
0 0 0
0 0 0
0 0 0
0 0 0
0 0 0
-0.5945740640500193 0.6663350952546371 -0.449976914064529
-0.6294240694300289 0.7081733790797839 -0.3198684197992386
-0.6678708455549103 0.7163396766057375 -0.2020049538455823
-0.703026865250279 0.704077715064315 -0.1001388929746002
-0.7349217492166481 0.6780118611585033 -0.01378182341796415
-0.7646194512907661 0.6417937721785621 0.05880347524270326
-0.7926969094191668 0.5978183005793996 0.1193519555334523
-0.8193428059168244 0.5476299957843387 0.1696430196311935
-0.8444901939104033 0.4921094258155263 0.2113400705324998
-0.8678657616739803 0.4317320571860406 0.2457975803622784
-0.8890308069482339 0.3668060620467296 0.2740028049906459
-0.9074278805647645 0.2976664988412115 0.2965961851429545
-0.9224369351482422 0.2248178666081178 0.3139538621009325
-0.9334492515142639 0.1489880585628592 0.3263051535804024
-0.9399503959686132 0.07109108399884248 0.3338252700056065
-0.9415924484364639 -0.007848504221359879 0.3366631284071835
-0.9382409315737865 -0.08676051203602032 0.3349277054392484
-0.9299950916419284 -0.1645777261664556 0.3286689848035554
-0.9171818187601906 -0.2402763040197094 0.3178754615606186
-0.9003225575810352 -0.312924933651774 0.3024851702311627
-0.8800708236663087 -0.3817463017931891 0.2823917605004218
-0.8571247841402715 -0.4461819237581047 0.2574078385053754
-0.8321331633845199 -0.5059131433887818 0.2271701779330932
-0.8056175252300825 -0.5607945468376874 0.191023242772364
-0.777914515912388 -0.610705781025766 0.1479440940169742
-0.7491247583315932 -0.6553579086285418 0.09653034783245687
-0.7190640186925835 -0.6940582599213903 0.03507233748359975
-0.6872107217041943 -0.7254509543134428 -0.03824051334010847
-0.6525759255718406 -0.7473186190269597 -0.1251380957969738
-0.6136378975267559 -0.7561565108123142 -0.227323254145036
-0.5701655079977422 -0.7453823474500048 -0.3454221324692386
-0.5300250733662485 -0.7012819334241088 -0.4767358508189264
0 0 0
0 0 0
0 0 0
0 0 0
0 0 0
0 0 0
0 0 0
-0.4752315701720059 0.725362862999094 -0.4979996703749981
-0.5589830427898103 0.7507780713571627 -0.3519520499196777
-0.6055671068189229 0.7634180212143563 -0.2246806712294475
-0.6417677161603219 0.7583627213800357 -0.1141060091118336
-0.6735184558857512 0.7389000501653941 -0.01999013373770039
-0.7030235407355421 0.708696360796621 0.059223047585265
-0.7314138368419765 0.670246707569084 0.1257105813720573
-0.7591730022765731 0.6250590727446468 0.1815420287260671
-0.7863423385928653 0.5739765872553239 0.2285095267577143
-0.8126622765694587 0.5174127062689432 0.2680748321502641
-0.8376563382805584 0.4555536321596071 0.3013349418248656
-0.8606853979854218 0.3885370306457698 0.3290282989526028
-0.8809949666754516 0.316606653858038 0.3515794297528455
-0.8977735075132912 0.240230198901335 0.3691777088924881
-0.9102301147462382 0.1601597026490869 0.3818769538168089
-0.9176885999016232 0.07742128006958311 0.389683947581864
-0.9196793785351757 -0.006746609959692115 0.3926121800851368
-0.9160101488864427 -0.09098394323306983 0.3907010739821403
-0.9067999416352283 -0.1739091210363734 0.3840175562011482
-0.8924702402300955 -0.2542225556167757 0.3726496511729353
-0.8736926770651208 -0.330802740701852 0.3566940604873109
-0.8513021675576818 -0.4027874623930626 0.3362244483236598
-0.8261921407030022 -0.4696189457184531 0.3112307704306862
-0.7992145354541446 -0.5310351440916029 0.2815276221943873
-0.771101251094562 -0.5869935465961897 0.2466605700448037
-0.7424065968423164 -0.6375456015926585 0.2058350088174132
-0.7134562554072421 -0.68268050698313 0.1578844419362844
-0.6842834284321595 -0.7221490740190388 0.1012763766461547
-0.6545299966102887 -0.755263705997025 0.03416457142969145
-0.6232904611694903 -0.7806632638284083 -0.04553975761793389
-0.5889129392938548 -0.7959821719479119 -0.1399783264414763
-0.54866441022679 -0.7976058735880309 -0.2505837891172572
-0.4962706140827687 -0.7819888823885238 -0.3771059074300724
-0.4048860101432551 -0.7529525684979813 -0.51877716640439
0 0 0
0 0 0
0 0 0
0 0 0
0 0 0
-0.4001065036015934 0.7250708324073988 -0.5605239279172203
-0.473694308684345 0.779517776190455 -0.4098362337850907
-0.5313015131921521 0.8037897002794021 -0.2676580277228347
-0.5727426605983007 0.8068812883727373 -0.1445974799390725
-0.6060898233898553 0.7943695840296702 -0.04039913305730709
-0.6358320924391118 0.770392326212642 0.04704480775998605
-0.6641826269034039 0.7378154805919781 0.1203733970548376
-0.6921988425690352 0.698333536052324 0.1821840683779595
-0.7202715783861834 0.6527867576662139 0.2346876698608333
-0.7483551603521302 0.6014787707184012 0.2796208904023767
-0.7760931444139901 0.5444153233943818 0.318263078045499
-0.8028920246702437 0.481487360063319 0.3514744924175463
-0.8279687225608482 0.4126277915801287 0.3797447828169107
-0.8503963583870014 0.3379516977717744 0.4032551098440056
-0.8691661074453864 0.2578750543726825 0.4219605834678404
-0.8832782374035051 0.1731895805761474 0.4356890227091046
-0.8918587467243392 0.08507544781477731 0.4442410877782529
-0.8942844603392194 -0.004957464753721968 0.447471482375141
-0.8902864758032721 -0.09518879025805761 0.4453415377112229
-0.8800046311788641 -0.183850351630527 0.437939376294348
-0.8639748360468079 -0.2692995614498556 0.4254705969638868
-0.8430517861094209 -0.3501734206963533 0.4082183991144073
-0.8182867190328688 -0.4254903603949028 0.3864774232286251
-0.7907919597514381 -0.4946859443879255 0.3604634417212172
-0.7616213833944261 -0.5575757949738653 0.3302152346812942
-0.7316830986627104 -0.6142621966435655 0.2955026174265725
-0.7016813438891447 -0.6650045948062688 0.2557580507520211
-0.6720708598061501 -0.7100769848460742 0.2100272244051464
-0.6430009801696305 -0.7496135267003267 0.1569372488888223
-0.6142252337554603 -0.7834311045972753 0.09467347341015085
-0.5849515648564502 -0.8107967262470399 0.02098417210834099
-0.5535935585841923 -0.8301110942890377 -0.06670639423882894
-0.5172980979664032 -0.8385680690735865 -0.1708984241312294
-0.470934818653717 -0.8319798135347563 -0.2933086879897389
-0.4061690782305326 -0.8045271803716525 -0.433315930854841
-0.3249760923903682 -0.746933989445185 -0.5800690948380087
0 0 0
0 0 0
0 0 0
0 0 0
-0.4257709803386333 0.7654570424136748 -0.4824879154142495
-0.4618332651848431 0.8223580198936858 -0.3323211132101626
-0.5006270176637411 0.8433651804901392 -0.1952120936877187
-0.5343091423250967 0.8417081892100949 -0.07772428606608114
-0.5640941357185694 0.8254528772082794 0.02062410134994602
-0.5920608722043902 0.7993293947735086 0.102647173636649
-0.6196270058674249 0.7659250024788108 0.1715262783878991
-0.6475431035051391 0.7264594217875765 0.2300970177968239
-0.6760682598201525 0.6813113797780251 0.2806180889549241
-0.7050955910560011 0.6303771850234081 0.3247534635309558
-0.7342246671832432 0.5733132680151399 0.3636289796172127
-0.7628002267425982 0.5097161852143767 0.3979010236377173
-0.7899386708769888 0.4392779531669466 0.4278221313987315
-0.8145614080365824 0.3619366577157332 0.4533117782928479
-0.8354572953583372 0.2780172795810932 0.474043774230671
-0.851387832624488 0.188341337063116 0.4895572481459691
-0.861237353149389 0.09426933187571546 0.4993831340843821
-0.8641853401474768 -0.002351517721077423 0.5031681311834012
-0.8598600359925043 -0.09934691485762924 0.5007703156250773
-0.8484228952966585 -0.1944569874283785 0.4923058711580778
-0.8305525184981836 -0.285606927476491 0.4781330327364574
-0.8073302130828277 -0.371133469740331 0.45877867723134
-0.7800661247932574 -0.4499180895343534 0.4348224392321387
-0.7501170139582304 -0.5214067571959832 0.4067670819040751
-0.7187379090533732 -0.5855373559992347 0.3749157542955615
-0.6869843981993488 -0.6426072297866831 0.3392762662736122
-0.6556596308834421 -0.693120682893269 0.2994898451957197
-0.6252847386348037 -0.7376355182057814 0.2547799794169333
-0.5960683272452857 -0.776612228735847 0.2039019260157856
-0.567851581009198 -0.8102424933186603 0.1450919844998841
-0.5400100174195118 -0.8382178449189108 0.0760264792429257
-0.5112984941642321 -0.8593812784887039 -0.006137430122512393
-0.4796704766933386 -0.8712033946658994 -0.1045030091021206
-0.4423723319903055 -0.8689981331722518 -0.2216956572253947
-0.3978566537970116 -0.8447108928455695 -0.3580133943548549
-0.3552625850844931 -0.7849359572817427 -0.5076061845616903
0 0 0
0 0 0
0 0 0
-0.3097511656470512 0.7592496568766853 -0.5723584313285932
-0.387682550803385 0.8243266884382632 -0.4125381806948136
-0.429385649107599 0.8635710336837483 -0.2643350792513689
-0.4618627916228686 0.8768889279639288 -0.1332237581236982
-0.4903391492774467 0.8712574973230021 -0.02186074208090958
-0.5169876394469363 0.8530361508791162 0.07108520206362026
-0.5432182631337841 0.8263136278563216 0.1487269545739402
-0.5699220813379645 0.793235477844029 0.2143975230569532
-0.5975727558655963 0.754637611434778 0.2709776316510437
-0.6263108118868134 0.7105536814367023 0.320699598862283
-0.6559941655981062 0.6605586600256957 0.3651491631734917
-0.6862158217510667 0.6040002988253532 0.4053288603065319
-0.7163029079120818 0.5401747495528141 0.4417254623204884
-0.7453109633583079 0.4684910105512276 0.4743708896323632
-0.7720355886251798 0.3886462593426074 0.502906686170675
-0.7950644091101953 0.3008124834904392 0.526672986911774
-0.812894112863135 0.2058039493965292 0.544837494749808
-0.8241187934238032 0.105174185782136 0.5565668018942189
-0.8276681174688096 0.001178812042331952 0.561216622818502
-0.8230326507402094 -0.1034309813591462 0.5584973481679458
-0.8103961166778292 -0.2057641806873321 0.5485610595180489
-0.7906142960695641 -0.3031962745230349 0.5319784337412367
-0.7650470165736448 -0.3937018134587957 0.509609600096996
-0.7353087587073247 -0.4760215461172168 0.4824152951560172
-0.7030233924900189 -0.5496559605453544 0.4512609385364393
-0.6696407878015269 -0.6147299460479966 0.4167592935309025
-0.6363337277073893 -0.6718000384526986 0.3791623601004853
-0.6039594432521719 -0.7216556282316924 0.3382988991233153
-0.5730576250359469 -0.765143572622714 0.29353069969308
-0.5438547272774854 -0.8030109204404972 0.2437119145040655
-0.5162523395770571 -0.8357416202250262 0.1871348874605227
-0.4897825023156717 -0.8633395017659217 0.1214825300854764
-0.4635235808689419 -0.8849993788835143 0.04384049901890669
-0.4359918352694356 -0.8986111098992569 -0.0490835282351848
-0.4050754659265711 -0.9001279848418992 -0.1602606558355237
-0.367982797498479 -0.8832097557144843 -0.2907390378947304
-0.3194197866969455 -0.8407118469128847 -0.4372351659311077
-0.2333457955224263 -0.7719214934193916 -0.5913433416461044
0 0 0
0 0 0
-0.3369725137540785 0.7894311837947959 -0.5130769250576408
-0.3648757948644417 0.8613522604819533 -0.3534656103281767
-0.3924589854930077 0.8960338269194416 -0.2076037709722511
-0.417663988816603 0.9049329051654913 -0.08156733166254575
-0.4415950354412265 0.8968837267710938 0.02435991229161012
-0.4653467967527863 0.8779261484963892 0.1126855649061421
-0.4897208467738337 0.8516135486053988 0.1868899571053473
-0.5152360064359262 0.8196633615269168 0.2503673929295753
-0.5421708306583763 0.7825827983536733 0.3059656093487299
-0.5705923208895685 0.7401272771461224 0.3558595466839719
-0.6003569641785601 0.6916035599010351 0.4015669701239359
-0.631088723604096 0.6360741134317469 0.4440008391453439
-0.6621404508455633 0.5725222570309981 0.4835165856081519
-0.6925539638896892 0.5000240072376971 0.5199471120091291
-0.7210382586603402 0.417957604436892 0.5526438911644984
-0.7459995524745743 0.3262535012672537 0.5805543218498959
-0.7656577490662042 0.2256526455379854 0.6023695666752936
-0.7782746442514717 0.1178924104964399 0.6167576166230812
-0.7824731988267043 0.005712832820828812 0.6226580575717825
-0.7775655948820482 -0.1074062317711545 0.6195608501450417
-0.7637561108654419 -0.2177597620182662 0.6076654418028411
-0.7421159903652831 -0.3220292182967982 0.5878444006770053
-0.7143363222504953 -0.4177617649952167 0.5614256196698874
-0.6823751752138313 -0.5035768196137476 0.5298815971512839
-0.6481319091759847 -0.5791007798582875 0.4945374759059373
-0.6132298879085505 -0.6447351256169064 0.4563613944796577
-0.5789176745407891 -0.7013704781481094 0.4158530731960229
-0.546058834524457 -0.7501277898172427 0.3729987241019596
-0.5151659163196118 -0.7921525513278137 0.3272589404239545
-0.486443769853706 -0.8284550833766745 0.2775511369060868
-0.4598162831960373 -0.8597606942973328 0.2222173131174731
-0.4349238308268053 -0.8863220247997321 0.158979651949044
-0.4110844398404163 -0.9076316743973994 0.08493719415935232
-0.3872306099249503 -0.9219770055113573 -0.00329485135644172
-0.3618686748838861 -0.9258228098940867 -0.1091017269230763
-0.333193707195247 -0.9131559269322281 -0.2347939662641066
-0.2997959567592926 -0.8751305233384112 -0.3798275285339623
-0.2649963001383071 -0.8000430795438558 -0.5382453267674429
0 0 0
0 0 0
-0.3175647991914553 0.8298236026942237 -0.4588522493418434
-0.3303249350036057 0.894640713011491 -0.3008378831483066
-0.3486196530392215 0.9236091482293755 -0.1594066461030396
-0.3681824680851234 0.928947764916994 -0.03870039083093859
-0.3883555718117195 0.9194013781081373 0.06229812016144418
-0.4094083392455884 0.9004715775053664 0.1467506383671476
-0.4317180681975278 0.8751866878614639 0.2183295009426686
-0.4555757934731001 0.8448759137023565 0.280420018627349
-0.4811553439177854 0.8097662708962707 0.335809650751887
-0.5085025358928621 0.7693831660796681 0.386619599533901
-0.5375099559353618 0.7228024275085171 0.4343267181030424
-0.5678691661863527 0.6688186190389614 0.4797981501857134
-0.5990057324557082 0.6060890138290563 0.5233051115753811
-0.6300047147853517 0.5333066445656484 0.564515794473774
-0.659550546193815 0.4494423356202554 0.6024903849586724
-0.6859182689907499 0.3540735004873838 0.6357264226987448
-0.7070731966638903 0.2477659892859425 0.6623137542831682
-0.7209268626761764 0.1324028533173376 0.6802455020838523
-0.7257498975607627 0.01127817969344829 0.6878661852812247
-0.720634151772066 -0.1112175092632759 0.6843369673874321
-0.705800222644814 -0.2303396698875697 0.6699176682179799
-0.6825671915504561 -0.341903359159952 0.645913401327193
-0.6529968861437301 -0.4429724544699009 0.6143048683410405
-0.6194043577616912 -0.5320934458740577 0.5772476127656984
-0.5839424822259172 -0.6091247093963172 0.5366360646235827
-0.5483587267989785 -0.674853200162591 0.493837893416162
-0.513918821717984 -0.7305867371907051 0.4495892170915999
-0.4814370384749496 -0.777821434733843 0.4039952891471079
-0.4513534322223116 -0.8180107281175403 0.3565648999912219
-0.4238122634967189 -0.8524091465548013 0.3062381625132673
-0.3987192447162836 -0.8819471123535785 0.2513806971588312
-0.3757642035877189 -0.9070798129481271 0.1897563602203559
-0.3544099275783314 -0.9275501898666225 0.1185084322413973
-0.3338604497341391 -0.9420004951292906 0.03423838897332852
-0.3130768178962733 -0.9473846517778369 -0.06667254061253043
-0.2910557212614852 -0.9382001219362504 -0.1872621112765762
-0.2680256728995662 -0.9057011144255083 -0.3284322304450745
-0.2493091247144786 -0.8374630355011508 -0.4863132987111276
0 0 0
0 0 0
-0.2680509597280371 0.8705305867599396 -0.4127047134505168
-0.2807001127958514 0.9249113012811059 -0.2564108645102364
-0.2966268969767411 0.9474563681919251 -0.1197452060105807
-0.3133416025318706 0.9496319395596424 -0.004027342914408953
-0.3308020042874431 0.9391299441327435 0.09276304217003613
-0.349361528198452 0.920665179025415 0.1741325665834575
-0.3693436455345608 0.8967378784207145 0.2438164246082608
-0.3909845539659088 0.8683363289747155 0.3051607745808648
-0.4144386826671901 0.8354574034229054 0.3609037342213849
-0.4397757770159371 0.7974403432053095 0.4131418218706822
-0.4669520567444235 0.7531658118815618 0.4633541156771352
-0.4957561191456929 0.7011817321567602 0.5124158943858462
-0.5257281250204028 0.6398172126522864 0.5605745917863117
-0.5560606465010534 0.5673434967967879 0.6073861325838968
-0.5854975288933844 0.4822403964741636 0.6516416528032729
-0.6122764010418796 0.3836069918917215 0.6913488876818906
-0.6341859562480904 0.2717004576842892 0.7238694869877044
-0.6488267990147767 0.1484702101974829 0.7463111827945185
-0.6541098291473331 0.01781419406120736 0.7561897816704453
-0.6488804255579114 -0.1147694601214898 0.7521849269635791
-0.633365513887321 -0.2432335947353515 0.734632931613039
-0.6091418691691152 -0.3623429319695714 0.7054458043512986
-0.5786375835591557 -0.4686444024323986 0.6674960456524072
-0.5444835119852711 -0.5607017107649037 0.6238199233124049
-0.5090108832359813 -0.6387398040149931 0.576991666763233
-0.4740055370904737 -0.7040510359162627 0.5288013706797745
-0.4406726896938566 -0.7584349732318103 0.4801915991943681
-0.4097198006678308 -0.8037940798977917 0.4313290647081123
-0.3814744116734072 -0.8418862045313876 0.3817131015018499
-0.3559917469925917 -0.8741866774540082 0.3302537343242067
-0.3331274398736577 -0.9017949919605783 0.2753032896244476
-0.3125709108262146 -0.925326122801984 0.2146415434288469
-0.2938359622198871 -0.9447239990270413 0.1454544360570251
-0.2762199257781859 -0.9589363554472325 0.0643709468989808
-0.2587663724182743 -0.965399611757729 -0.03230408834052028
-0.2403716161938727 -0.9593378146580306 -0.1479609526040536
-0.2205101512779757 -0.9329862534245537 -0.2844502137530889
-0.2023699085611076 -0.8746746013435683 -0.4404438237430946
0 0 0
-0.100952230127611 0.8318575147636978 -0.545730448448156
-0.1867124538256718 0.9072533315263799 -0.376868481065584
-0.2194146063255104 0.9498341459209863 -0.2228728915179485
-0.2385910151788554 0.9669643233263437 -0.08974589065772695
-0.2543032999936751 0.9668662970758243 0.02234715174714717
-0.2696113965203392 0.9559447615290829 0.116100421064941
-0.285645165084089 0.9382222171604382 0.1953097818611109
-0.3029133200348286 0.9157822831667367 0.2637922106192594
-0.3216941247484861 0.8893563493727347 0.324897174399389