# OOMMF: rectangular mesh v1.0
# Segment count: 1
# Begin: Segment
# Begin: Header
# Title: 
# Desc: time = 4e-11
# Desc: stepsize = 1.1650280937152272e-14
# Desc: step = 254
# meshunit: m
# valueunit: (none)
# valuemultiplier: 384000.0000000001
# xmin: 0
# ymin: 0
# zmin: 0
# xmax: 9.357999999999999e-08
# ymax: 9.357999999999999e-08
# zmax: 2.3395e-08
# ValueRangeMaxMag: 1
# ValueRangeMinMag: 0
# meshtype: rectangular
# xbase: 1.16975e-09
# ybase: 1.16975e-09
# zbase: 1.16975e-09
# xstepsize: 2.3395e-09
# ystepsize: 2.3395e-09
# zstepsize: 2.3395e-09
# xnodes: 40
# ynodes: 40
# znodes: 10
# End: Header
# Begin: Data Text
0 0 0
0 0 0
0 0 0
0 0 0
0 0 0
0 0 0
0 0 0
0 0 0
0 0 0
0 0 0
0 0 0
0 0 0
0 0 0
0 0 0
0 0 0
0 0 0
-0.8678914651829417 0.09663019131720986 -0.4872648261352404
-0.8809747942377311 0.1056005241596283 -0.4612287298239334
-0.8954327072245447 0.07692786610813149 -0.4385001371135155
-0.9049316519722044 0.03231730137544964 -0.4243280538577026
-0.9074162211029204 -0.01727565032662735 -0.4198777841051934
-0.9028043651023798 -0.06343244153970491 -0.4253476269034546
-0.8928845506592702 -0.09525936160772173 -0.4400941185929231
-0.8832559441837983 -0.09105528539544949 -0.4599650770064396
0 0 0
0 0 0
0 0 0
0 0 0
0 0 0
0 0 0
0 0 0
0 0 0
0 0 0
0 0 0
0 0 0
0 0 0
0 0 0
0 0 0
0 0 0
0 0 0
0 0 0
0 0 0
0 0 0
0 0 0
0 0 0
0 0 0
0 0 0
0 0 0
0 0 0
0 0 0
0 0 0
0 0 0
-0.7757194802413041 0.326626606029345 -0.5399762478182827
-0.8073532203376806 0.3509268756251672 -0.4743744360463943
-0.8494087270120301 0.3282362242828781 -0.4132381825827841
-0.8916860721816287 0.2744521806109932 -0.3599610384960707
-0.9301637081584501 0.1869658694351902 -0.315973479411271
-0.9477122560734 0.1383813143261471 -0.2875623263461924
-0.9596933254448425 0.0905791927795869 -0.2660528724370734
-0.9668843966207367 0.03824552332934424 -0.2523328030926977
-0.9687745331249971 -0.01644129034912287 -0.2473976312338087
-0.9653537303848554 -0.07004723051368419 -0.2513673819917903
-0.9571368519040038 -0.1203202677845406 -0.2634617237618191
-0.9435900201978056 -0.1721670233298968 -0.2828363305178935
-0.9114220373125325 -0.2618804746725267 -0.3173775147775347
-0.8744717656457511 -0.3215389973604521 -0.3631966468248807
-0.836918303884847 -0.3527658824014017 -0.4184781772518981
-0.8083148862142228 -0.3394719020187587 -0.4810258542576001
0 0 0
0 0 0
0 0 0
0 0 0
0 0 0
0 0 0
0 0 0
0 0 0
0 0 0
0 0 0
0 0 0
0 0 0
0 0 0
0 0 0
0 0 0
0 0 0
0 0 0
0 0 0
0 0 0
0 0 0
0 0 0
0 0 0
-0.7262158373143545 0.4228439083054764 -0.542045742389663
-0.7679420368698473 0.4483887911830374 -0.4573975513157065
-0.8297259264206153 0.4091013257712033 -0.3797248902530556
-0.8684185704219073 0.3842688744582932 -0.313347440820772
-0.9031851767387988 0.3464881275451005 -0.253382150100583
-0.9348192109426116 0.2924111781911827 -0.2015161177709547
-0.9610135125227359 0.225282553545916 -0.1603146899586695
-0.9775877272515573 0.1643885895376363 -0.1315242455099473
-0.9882309229635482 0.1052039666724518 -0.1110484952396694
-0.9941629181768977 0.04499864517903305 -0.09805719786964114
-0.9955591806243 -0.01620034994185987 -0.09273330866756127
-0.9924451668255001 -0.07745280925292097 -0.09515068672130454
-0.9847275804673439 -0.1386881234667466 -0.1052482621053811
-0.9714077944662117 -0.2025195040910314 -0.1239062036905836
-0.9492970365270132 -0.2733770025801665 -0.1552422329822461
-0.9217943724133515 -0.333068496466173 -0.1983948377575332
-0.891026231537141 -0.3783468424671854 -0.2508503966666814
-0.8563643968648413 -0.4122198938288274 -0.3109899980932931
-0.8008504500463779 -0.4602549602854875 -0.3831500074293593
-0.7624413102015668 -0.4481114665019354 -0.4667754943092051
0 0 0
0 0 0
0 0 0
0 0 0
0 0 0
0 0 0
0 0 0
0 0 0
0 0 0
0 0 0
0 0 0
0 0 0
0 0 0
0 0 0
0 0 0
0 0 0
0 0 0
0 0 0
0 0 0
-0.7151977489500023 0.501465962544732 -0.486851176753158
-0.7715985758596245 0.5006992636513521 -0.3923466389691554
-0.8157538917190738 0.4896689622629234 -0.3078471951172152
-0.8587424826670259 0.456793188675158 -0.2321666023416241
-0.8928806172894067 0.4179308350328268 -0.1676246413796355
-0.9220555254032683 0.370638511736919 -0.1115378935193957
-0.9473546118803746 0.3137444002675872 -0.06390376084172572
-0.9680598685385748 0.2493760187872013 -0.02591702488563048
-0.9829673408474182 0.1837693331786837 0.002009728941249211
-0.9928003351757553 0.1177870502163689 0.02176477144915831
-0.9981031463535318 0.05108192845618014 0.03436198225331986
-0.999065713130261 -0.01626972493818249 0.04003744369909438
-0.9957216110816794 -0.08389825527721463 0.03872410084615956
-0.9879676181827572 -0.1517102336012077 0.03006643382505094
-0.9754034018494638 -0.2200464856265204 0.01295174983972221
-0.9574747314157581 -0.2881448056738429 -0.01465297456166106
-0.9352242592567719 -0.3501083081330216 -0.05272340537043346
-0.909293662986765 -0.4039143287378419 -0.1001910649328067
-0.8787151046600656 -0.4507463860411239 -0.1571224373318954
-0.8400320469435216 -0.4930485440972595 -0.2263830675458071
-0.7998822738299842 -0.5157654880247718 -0.3068783299210661
-0.7487834588065209 -0.5285577796579102 -0.3999375018435294
0 0 0
0 0 0
0 0 0
0 0 0
0 0 0
0 0 0
0 0 0
0 0 0
0 0 0
0 0 0
0 0 0
0 0 0
0 0 0
0 0 0
0 0 0
0 0 0
-0.5883904220659295 0.585381342526704 -0.557786155298525
-0.6441234124305599 0.6215162985910914 -0.4458951896403905
-0.7317897014464892 0.5890680151162276 -0.3427575038184952
-0.7865412334374878 0.5637852885983933 -0.2519901515191844
-0.827583105520972 0.5342773262617343 -0.1722032000250739
-0.8627898316618289 0.4951289548994094 -0.1021813309815992
-0.8926064584141338 0.4488654200694192 -0.04211347840395643
-0.9183568016721527 0.3956419921690101 0.009391424547484954
-0.9405869300640183 0.3354188309356308 0.05282456669505296
-0.959004934953287 0.269408421176296 0.08791266879430225
-0.9730306375601897 0.2001598091221413 0.1146622395621074
-0.9825485348758273 0.1290528806715571 0.1339542108473555
-0.9875845454664217 0.05671100797505464 0.1464944610909711
-0.9881608261715643 -0.01635837335232954 0.1525469935501747
-0.9843062932774166 -0.08960569688036278 0.1520261165098175
-0.9760685062176286 -0.1625062733376959 0.1445059939794225
-0.9635175422900746 -0.2344304376690126 0.1291368095997771
-0.9468658608891192 -0.3040476660533825 0.1048811625135684
-0.9267054261089795 -0.368917686290228 0.07153176890332777
-0.903351961331806 -0.4279002945397814 0.02926724945647343
-0.8763609978239792 -0.4811314497927269 -0.02244837440234116
-0.8445689100395019 -0.5286335877545001 -0.0851462629390901
-0.8074685774879125 -0.5680660124956184 -0.1590455966601227
-0.7579955342951766 -0.6043293276448084 -0.2454156346627963
-0.6789719050714027 -0.6477450146141199 -0.3455771233259854
-0.6271227814741879 -0.6288253248183115 -0.4596691503932177
0 0 0
0 0 0
0 0 0
0 0 0
0 0 0
0 0 0
0 0 0
0 0 0
0 0 0
0 0 0
0 0 0
0 0 0
0 0 0
-0.555530324677749 0.6252762754073349 -0.5481018498200544
-0.623757893982849 0.6522417943719974 -0.430704923780165
-0.6792846077818091 0.6604639413933024 -0.3199371871945145
-0.7359635465860869 0.6407690402336286 -0.2185696574881859
-0.780860476149141 0.6107404920557487 -0.1313505544397829
-0.8171920010206694 0.5735894960257497 -0.05650065058705587
-0.8484176021065469 0.5292660264832858 0.008065088119202243
-0.8758281141297235 0.4784232266977786 0.06353212302495061
-0.9001065663741249 0.4212675309640495 0.1110938185752747
-0.9213929039922268 0.3579381940919835 0.1513782206360611
-0.9393452501237877 0.2891308004436647 0.1844827398557496
-0.9533983148606342 0.2161725446222636 0.210478227312086
-0.9630914871691617 0.140299244317209 0.2297191968171405
-0.9681255299329629 0.06252325709531918 0.2425361841338566
-0.9683563217911765 -0.0162199218289776 0.2490440687567668
-0.9638038385230592 -0.09498485655949351 0.249118521737323
-0.9546607416866724 -0.1727989173245262 0.2424116384452771
-0.9412947598070157 -0.2485970965995556 0.2283936486028527
-0.9242456766473 -0.3211037404673038 0.2065485827999815
-0.9041476754022736 -0.3889726011479668 0.1766841719590342
-0.881424856570167 -0.4515102342086528 0.1386676985642568
-0.8560572348291497 -0.5086473307187798 0.0918907157950665
-0.8275061521227561 -0.5603551491281481 0.03515216984142614
-0.7946059110235176 -0.6062368221851525 -0.03283841642547723
-0.7541894575270007 -0.6466340084984548 -0.1142922622417996
-0.7031255318109368 -0.6788931390153854 -0.2114677098599768
-0.6522456335645155 -0.6866019651796607 -0.3211749910990135
-0.5894957956442043 -0.6767725557123995 -0.4409916266238093
0 0 0
0 0 0
0 0 0
0 0 0
0 0 0
0 0 0
0 0 0
0 0 0
0 0 0
0 0 0
0 0 0
-0.5017639082032662 0.6626596093082614 -0.5559813149881982
-0.5756658968074957 0.6952642956744352 -0.4303676735224813
-0.6328621595014399 0.7082696300953314 -0.3127932514550085
-0.6800519634155856 0.7035895161407117 -0.2061337425835126
-0.7228331810825934 0.6820000415245199 -0.1113020021678472
-0.7598873190851775 0.6493754251813284 -0.02971227800270524
-0.792218647879359 0.6089193497057714 0.04008540265608437
-0.8212410392288887 0.5617233909004841 0.1001498257687768
-0.8477129368663459 0.5081909207223088 0.1520682898070676
-0.8718675963666422 0.4483725370393069 0.1969999046568015
-0.8935068624283905 0.3823047736188045 0.2355600706012111
-0.9120862628169658 0.3103715639934418 0.2678957660076865
-0.9268744118379765 0.2334260459918909 0.2939661642648627
-0.9371627870650148 0.1525906449224798 0.3137546902002821
-0.9424106057191832 0.06911918519746338 0.3272381219626476
-0.942329592541622 -0.0156417657822649 0.3343206158518391
-0.9369293834251754 -0.1002836979104095 0.3348231031573751
-0.9265267475417506 -0.1833893794466568 0.3285065016036594
-0.9117122111766867 -0.2635850772699821 0.3151249768455271
-0.8932676250488656 -0.3396098767759295 0.2945132961952598
-0.8720156497546635 -0.4104829461093165 0.2666316889200674
-0.8486151777964354 -0.4757366571620208 0.231358840431547
-0.8234038475652493 -0.5353443753390186 0.1881821022510361
-0.7962998820176731 -0.5894020316057983 0.1360578665039145
-0.7666799055655086 -0.6378130064342833 0.07346081421631268
-0.733227027527519 -0.6799817183260238 -0.001728827795487183
-0.6947887379319253 -0.7133884539584495 -0.09135383627267599
-0.6520096474252163 -0.7327385575877725 -0.1948784900614624
-0.5995460411089814 -0.7369512598298793 -0.3121656374838542
-0.5315303339804885 -0.7228865660181115 -0.4414867118375506
0 0 0
0 0 0
0 0 0
0 0 0
0 0 0
0 0 0
0 0 0
0 0 0
0 0 0
-0.4492212932503087 0.6769567367304672 -0.5830349957641966
-0.5194106539782229 0.7267849083554608 -0.4494399509619264
-0.5756845820071409 0.7512295750116394 -0.3228643487087027
-0.621498290519105 0.7550914655960744 -0.2087504574026172
-0.6603746092294525 0.7431055238938887 -0.1081644851299934
-0.6952944815672216 0.7184344774073284 -0.02043246374344353
-0.7271633760658106 0.6842400891854989 0.05521707036771052
-0.7567124764184006 0.6425538763312922 0.120460549742899
-0.784550561756433 0.5942071199541256 0.1771956958943654
-0.8109315257708097 0.5393334602170899 0.2269569985730489
-0.8357225275143135 0.4777550254191987 0.2707729541364641
-0.8584324603296344 0.4093103965606613 0.3091257192790091
-0.8782716818176759 0.3341490181205736 0.3420281956304294
-0.8942742267546632 0.2528993266731286 0.3692093416080193
-0.9054776591597453 0.1666661415679705 0.3902980989159861
-0.911110256259733 0.07695109180080141 0.4049155842999721
-0.9107411934016794 -0.01445576048319494 0.412724496038383
-0.9043701718579291 -0.1056208135376415 0.4134716870612862
-0.8924370541751639 -0.1946389744001431 0.4070279769003791
-0.8757496440095639 -0.2798053321926917 0.393410138524237
-0.8553397470694192 -0.3597681109686979 0.3727744940486629
-0.8322763550947803 -0.4336585288097706 0.3453351258425538
-0.8074810703016416 -0.5011473780592938 0.311168164452616
-0.7815978113256505 -0.5623300082421647 0.2699811533446724
-0.754913115564683 -0.6174767389459527 0.2209720905659694
-0.7272981347012448 -0.6667354760578833 0.1627919783833257
-0.6981949427443581 -0.7097627928806051 0.09359807566678542
-0.6667637894876119 -0.7451802809594392 0.01150642852193612
-0.6318003607936488 -0.7704789258628147 -0.08479698639868087
-0.5901641886120219 -0.7829338288027294 -0.1967761423450805
-0.5382638436428383 -0.7777573627751128 -0.3246005534128665
-0.4730657962706161 -0.7487781545920452 -0.4642628863096629
0 0 0
0 0 0
0 0 0
0 0 0
0 0 0
0 0 0
0 0 0
0 0 0
-0.4807597468383754 0.7298590808827935 -0.4859792051855971
-0.5180330040517854 0.7803563015536926 -0.3502653984317102
-0.5583658195186268 0.797868304231705 -0.2272306772768931
-0.5944824172479017 0.7952213213145245 -0.1192212468894427
-0.6266917080397949 0.7788483641983583 -0.02554855494358509
-0.656513616457942 0.7522637622123873 0.05557970373597257
-0.6849549669681263 0.7176045788119844 0.1260173071199628
-0.7126125316705617 0.6759859844868963 0.1876867829213185
-0.7397723097002435 0.6276952153372607 0.2423543819357851
-0.7663965304048758 0.5724829488511839 0.2913754132695834
-0.7921048487173559 0.50986159720385 0.3355757147577776
-0.8161722727244326 0.4393997309480944 0.3752208651961887
-0.8375660027002912 0.3610057919511304 0.4100707369447281
-0.8550509590307601 0.2751528577094932 0.4395210601949314
-0.867376901438624 0.1829881463757058 0.4627879094539034
-0.8735124267249971 0.08631561018726734 0.4790883590685606
-0.8728668746447495 -0.01255197661341071 0.4877969526667863
-0.8654302537112495 -0.1110549417334152 0.4885665521480871
-0.8517858052706486 -0.2067094331086445 0.4813856584936188
-0.8329890740344295 -0.2974074014075255 0.466559792660369
-0.8103581254217932 -0.381628886525866 0.4446111801697122
-0.7852382053020036 -0.458534613520433 0.416109323541008
-0.7588067356139212 -0.5279274316525595 0.3814511304160421
-0.7319502096009372 -0.5900860161447073 0.3406572826399165
-0.7052057986972778 -0.6455208926790307 0.2932363527917395
-0.6787342454365227 -0.6947027095870576 0.2381343514995555
-0.6523054843890165 -0.7377690554388461 0.1737652896089517
-0.625270544988231 -0.7742080935250676 0.09817623689264422
-0.5964435779683963 -0.8026023428955097 0.00919442651260742
-0.5640252217753882 -0.8201982748579816 -0.09565740494710689
-0.5272137981834109 -0.8211936414761571 -0.2183726498537535
-0.4923983832634743 -0.7928772779937597 -0.3590117744597278
0 0 0
0 0 0
0 0 0
0 0 0
0 0 0
0 0 0
0 0 0
-0.3474460997070318 0.7734883811228249 -0.5300914374580696
-0.4386752903169541 0.8101779617703672 -0.3888131426880387
-0.4876823568462644 0.8336484695672376 -0.2592221981410448
-0.5240988341208498 0.8394140874536277 -0.1438902423987073
-0.5547231812158258 0.8308968440017312 -0.04350433139075352
-0.5823266709696359 0.8118012402357098 0.04329427940484609
-0.6085849953996862 0.7845547916132023 0.1187353457531846
-0.6345101343596066 0.7504298777323153 0.1850726560073523
-0.6606448019372652 0.7098243739483318 0.2443313402372489
-0.6871695574431687 0.6624876311166674 0.2981746768939071
-0.7139301080140751 0.6077417949448589 0.3477840012827102
-0.740419256233946 0.5447204736770628 0.3937752284679751
-0.7657534099120051 0.4726403017273369 0.4361569217509087
-0.7886844871933292 0.3911072610542481 0.474354182031991
-0.8076964601271737 0.3004171045358875 0.5073223744329696
-0.8212130274177774 0.2017762729567572 0.5337560297280103
-0.8278991338385505 0.09735519984954102 0.5523630954830648
-0.8269736843746787 -0.009890327166150207 0.5621536327200205
-0.8184194896464762 -0.1166251674083419 0.5626616294841665
-0.802995988001096 -0.2196534585282895 0.5540305058484636
-0.7820545510945761 -0.3163779791017979 0.5369317027813899
-0.7572381869436916 -0.4050706306172362 0.5123554551730517
-0.730181136748444 -0.4849230721731149 0.4813368068317003
-0.7022862251349281 -0.5559172995791426 0.4446909196446073
-0.6746080642967337 -0.6185884574763326 0.4028055112121294
-0.6478152692383026 -0.6737517208999265 0.3555193321411548
-0.622191297127311 -0.7222405247141752 0.3020705451374344
-0.5976284092747164 -0.7646628089988344 0.2411038634318908
-0.5735798768537578 -0.8011625050208039 0.1707183804316865
-0.5489369854512473 -0.8311614923356521 0.08853677011314923
-0.5218396716450185 -0.8530048739059196 -0.008126634614959076
-0.489316106236805 -0.8635990050087304 -0.1215175161249683
-0.4449141414904604 -0.8593380133157907 -0.252169755466979
-0.3626861619737077 -0.8425264185818427 -0.398256176228862
0 0 0
0 0 0
0 0 0
0 0 0
0 0 0
-0.2641899235863092 0.75768060519112 -0.596761078483406
-0.3439284659018862 0.823672567738957 -0.4508621868117662
-0.4054691879341948 0.8600642691512429 -0.3096517246283679
-0.447559853926947 0.8751295113270471 -0.1839524817918294
-0.479145554972726 0.8745307262761239 -0.07493694648725258
-0.5055042158655515 0.8626183320828413 0.01884412101346818
-0.5295079305320201 0.8424057733287642 0.09986923733594809
-0.5528273150970463 0.8155916646718581 0.1708572392390149
-0.5764513768924584 0.7828199512478785 0.2343005207144395
-0.6009176091947832 0.7439524782061663 0.292288790634416
-0.6264108662305005 0.6982780533852279 0.3464349676763165
-0.6527789364878895 0.6446923449602966 0.3978082960765569
-0.6794952540525888 0.5818988696278087 0.4468555753774209
-0.7056033689563287 0.5086751529732271 0.4933289718485454
-0.7296962252239931 0.4242242164695179 0.5362622800968562
-0.7499930951509924 0.3285834699105462 0.5740585863197057
-0.7645714891578912 0.2229900433242971 0.6047362057501703
-0.7717501021933304 0.1100410674893713 0.6263327735560255
-0.7705257180047088 -0.006511335726793883 0.6373756509315215
-0.760876816396064 -0.1223564763489449 0.6372561203836807
-0.7437781452381145 -0.2334193027120731 0.6263461501339013
-0.7209217285285796 -0.3365292783605397 0.605821678500777
-0.6942992179332386 -0.4297510624677641 0.5772890266453371
-0.6658171686192068 -0.5123649451019153 0.5423740969133886
-0.6370493805294998 -0.5846175096428244 0.5023847670720143
-0.6091318546815593 -0.6473826112058988 0.4580983937108224
-0.5827593347239236 -0.7018350545216302 0.4096573129296605
-0.5582186509041722 -0.7491797348111048 0.3565412496908151
-0.5354122452807241 -0.7904342358518144 0.2975692295866824
-0.5138278344870854 -0.826231908720502 0.2309151132307887
-0.4924285761053514 -0.8565970322632188 0.1541285883692633
-0.4694164719916731 -0.8806363421351596 0.06424802513460112
-0.4417485942376917 -0.8961634761671869 -0.04182347992415893
-0.4041003629596746 -0.8994175229532404 -0.1665863621684445
-0.3478745220454882 -0.8846759177502489 -0.3103737061420919
-0.2736595733887087 -0.8423594930414412 -0.464263849955686
0 0 0
0 0 0
0 0 0
0 0 0
-0.2917711905418406 0.7946504326901026 -0.532353512428752
-0.3301996960997121 0.8632304876987519 -0.3818393455408078
-0.3697412219127874 0.896706516883481 -0.2433286900411327
-0.4016131234219787 0.9075874232187454 -0.1224416935132804
-0.4272655134219626 0.9039247104378335 -0.01908661573315537
-0.4493334873811141 0.8906756990887056 0.06925471948373738
-0.4698403533826115 0.8706345346745831 0.1457585310205715
-0.4901480411247635 0.8450886023932941 0.2134950863287155
-0.5111384085963793 0.8142747614819612 0.2751256805008496
-0.5333431244885775 0.7776776392367934 0.3328101575851451
-0.5569965222236259 0.7342171083434302 0.3881753624930328
-0.5820211899770313 0.682391051051941 0.4422598646293234
-0.607959028197076 0.6204445211906565 0.4954133790665767
-0.6338767599823938 0.5466346556799841 0.5471661597392949
-0.658296827742435 0.4596418063102902 0.5961331197610649
-0.6792382694048457 0.3591190779202268 0.6400537955903677
-0.6944551403191354 0.2462607150859984 0.6760826268213541
-0.7019076868415538 0.1241320253343585 0.7013678346197015
-0.7003499800645042 -0.002541366804728532 0.713795101467089
-0.6897626745059375 -0.1282309430779451 0.7125898386138806
-0.67136342097205 -0.2477940005603697 0.698476406378192
-0.6472034646538691 -0.3574230702627955 0.6733323281886474
-0.6196011740621774 -0.4550224675681837 0.6395693387811302
-0.5906743294399667 -0.5400646385402059 0.5995281667603967
-0.5620780024036675 -0.6131683090727796 0.5550612074021481
-0.5349342926654349 -0.6756268987128439 0.5073200136661227
-0.5098717613076527 -0.7290124268482435 0.4566964730779801
-0.4871039968519962 -0.7748898351291079 0.4028342583053162
-0.4664856490142643 -0.8146168804386028 0.3446599445369588
-0.4475192864819474 -0.8491799145910075 0.2803925121715937
-0.4292860841850294 -0.8789991039655038 0.2075428465472248
-0.4102965715951477 -0.9036265508287376 0.1229462483145634
-0.3882828556172749 -0.9212540865069889 0.02296371328569258
-0.3602208589997432 -0.927921025528328 -0.09593489002413545
-0.3240255197556954 -0.9162237431516648 -0.2356724740656052
-0.2872978977945993 -0.8732140416951897 -0.3936459771281237
0 0 0
0 0 0
0 0 0
-0.1678445447098902 0.7682708497687269 -0.6177281847275286
-0.2518295266864336 0.8475342321647324 -0.4671911972606329
-0.295008467731749 0.9002409050606905 -0.3202129241958767
-0.3259482651653007 0.9266608992713053 -0.1872359639530455
-0.3501546228484076 0.9339082469829325 -0.07216042069690977
-0.3701345527005774 0.92862020688269 0.02578612546105616
-0.3877673141654228 0.9152270114466888 0.109526378481608
-0.4044721006969907 0.896156740941995 0.182497713470567
-0.4212821484007822 0.8723856655342215 0.2479205558424606
-0.4389373443358139 0.8438792944599502 0.3085477987754881
-0.4579464560134954 0.8098645614833946 0.3666121049256126
-0.4786004635280884 0.7689796201156326 0.423806489046022
-0.5009304169919493 0.7193721528149242 0.4812197243325473
-0.5246125129760889 0.6588295738348064 0.5391894879071363
-0.548834838838135 0.585033399561908 0.5970898098900658
-0.5721754009794551 0.4960275916296876 0.6531247498419052
-0.5925833686118996 0.3909327669256482 0.7042844049021886
-0.60759511518175 0.2707830118862136 0.7466623979290148
-0.6148683977517909 0.13911898320169 0.7762620446466986
-0.6129336875187504 0.001815636147161834 0.7901322662504344
-0.6017797637561755 -0.1341196354131914 0.7873201631675604
-0.5828599992188082 -0.2622973754878072 0.7690736688528993
-0.5585323150589944 -0.3782533072825782 0.7382181849322268
-0.531342015299342 -0.4798298268222257 0.6981683178642428
-0.5034885213134127 -0.5668239052411013 0.6520812597773837
-0.4765843170886214 -0.6403345066695592 0.6023612772028299
-0.4516339068210639 -0.7021339320280646 0.5504859268903716
-0.4291295211719858 -0.7542029339395729 0.4970168895476712
-0.4091663536754091 -0.7984352157799215 0.4416832589338651
-0.3915333345563922 -0.8364602898769801 0.3834525151698321
-0.3757451758680203 -0.8695132159231876 0.3205656409330638
-0.3610158613937881 -0.8982773425911632 0.2505301650689172
-0.3461643913248595 -0.9226186044066715 0.1701326687658048
-0.3294837569341774 -0.9411306015930068 0.07558865431878503
-0.308630733487965 -0.9504665016742156 -0.03688495007260239
-0.2805255889610359 -0.9447454802859445 -0.1695917787433792
-0.2395907535999053 -0.9164125590639243 -0.3205998945404359
-0.1606700368440723 -0.8622502707077292 -0.4803224020644589
0 0 0
0 0 0
-0.1993888743017112 0.7947927943576792 -0.5731914957863629
-0.2291004373979753 0.8801031384353832 -0.4158502799088208
-0.2557378668775356 0.9283474944957734 -0.2697574334626339
-0.2770501597147091 0.9504005690490753 -0.1413575868259198
-0.2942833006676816 0.9551937565111187 -0.03165796061518023
-0.3088229531380147 0.9491345788143192 0.06141608025655956
-0.3218529126521137 0.9361954281305627 0.1412403021972946
-0.3343220162503713 0.9184465075611814 0.2113878004969893
-0.3469789635643941 0.8966128569211146 0.2751199441108104
-0.3604174321304013 0.8704721034564233 0.3352276714722062
-0.3751028171321085 0.8390797629974706 0.3940089185636084
-0.3913635821932279 0.8008704455711777 0.4532560820810983
-0.4093387076678311 0.7537054598399217 0.5141691377478055
-0.4288722033785916 0.6949523694335666 0.5771566835685634
-0.4493611682803766 0.6217114552167423 0.6415211663647392
-0.4695903863445641 0.5313217328031936 0.7051113992155951
-0.4876481090140521 0.4222410016101151 0.7641412554850743
-0.5010768986496034 0.295202518114182 0.8134970282298153
-0.5074135136093927 0.1541762675446048 0.8477978560556667
-0.5050583536988532 0.006313630820718496 0.8630621051957171
-0.4940148646045634 -0.1396786678935942 0.858160348236392
-0.475883584714736 -0.2760489843216291 0.8350639329141507
-0.4531565247256835 -0.3977284444572607 0.7977852145584978
-0.4283880956840252 -0.5026357303913174 0.7508934425137838
-0.4036589367583407 -0.5910210980066638 0.6983935312459034
-0.3803851557531864 -0.6645357543482483 0.6431946551981198
-0.3593626235080534 -0.725446136291626 0.5870148278919026
-0.3409014477633108 -0.7761150072224378 0.5305013651980492
-0.3249708131246503 -0.8187134764591839 0.4733943536642791
-0.3112990741420158 -0.8550747990142066 0.4146564536205092
-0.299425530953948 -0.8866036369096059 0.3525313353896437
-0.2886898322572881 -0.9141605254003903 0.2845500211754353
-0.2781768034745539 -0.9378450381668052 0.2075195181051235
-0.2666205319263915 -0.9565993596596342 0.1176059397057211
-0.2523257003597799 -0.967583284307151 0.01069246778500262
-0.2332079370945771 -0.9653990060866635 -0.1166996877586815
-0.2073609881547132 -0.9414754412930212 -0.265754424297342
-0.1770875387272968 -0.8838109266487355 -0.4330337741606436
0 0 0
0 0 0
-0.1823219424723181 0.8300866730634867 -0.5269865505831363
-0.1947116345565024 0.9085277659044342 -0.3696818604544076
-0.2098791996217335 0.9509404472032836 -0.2272949349170784
-0.2233804934676259 0.9691593258436952 -0.1040738020269931
-0.2346215279902165 0.9720866781437795 0.0004783084021206268
-0.244086160616642 0.9656447256811782 0.0891751644772726
-0.2524359643197027 0.9533325793586164 0.1656293363249063
-0.2602805012900339 0.9368899425790144 0.2334337082396189
-0.2681456561514224 0.9168354405607171 0.295822044511491
-0.2764888102106156 0.8928135196666848 0.3555811537872951
-0.2857090112432708 0.8637690589519962 0.4150582774642316
-0.2961359084450711 0.8280015010273525 0.4761481261391912
-0.3079830440318935 0.7831606938071966 0.5401904962735639
-0.3212574841655481 0.7262723083625873 0.6077188190053863
-0.3356187352673542 0.6539193899135928 0.6780482991886166
-0.3502082830478337 0.5627588532557806 0.748770079241236
-0.3635181006967481 0.450537564811837 0.8153959119098209
-0.3734528561581125 0.3175750170710953 0.8715957048767744
-0.3777759458850429 0.1681650025359663 0.9104975928758621
-0.3749716053553486 0.01073454175486712 0.9269741446181471
-0.3650559050597018 -0.1442392461874768 0.9197441090000577
-0.3495644954263495 -0.2876743515240339 0.8916547151294316
-0.3307837759187457 -0.4140346060611198 0.8480315080070728
-0.3109412383458828 -0.5214522482675968 0.7946087710770612
-0.2917421192297808 -0.6106978476923832 0.7361621252762238
-0.2742587426182209 -0.6839693855860416 0.6759940988488915
-0.2590128535798617 -0.7439756775133324 0.6159647172923094
-0.246128767438039 -0.7933926759422965 0.5567303580734156
-0.2354685726858763 -0.8345977924214402 0.4979970644115633
-0.2267316270952571 -0.8695620441175879 0.4386965018150693
-0.219496313705438 -0.8997974275607701 0.3770755330497385
-0.2132217450829672 -0.9262819544608099 0.3107060158156514
-0.2072013698624493 -0.9492899868887311 0.2364658815134161
-0.2005030811594866 -0.9680548937480801 0.1505597460676176
-0.1919398845837499 -0.9801961035117939 0.04873068198037759
-0.1802744727094746 -0.9808943708877516 -0.07312556085284143
-0.1652284524823157 -0.9619363050719378 -0.2176651177263975
-0.1509241491482706 -0.9109734333440007 -0.3838610490077287
0 0 0
0 0 0
-0.1333254778357217 0.8642926972273676 -0.4849973716210408
-0.1446919949118196 0.9327863560439439 -0.3301118607179974
-0.1560632492954283 0.9687574581853485 -0.1927517819103509
-0.1650392372107703 0.9834462178382367 -0.07480365499461956
-0.1717225709195775 0.9848263377171759 0.02506876892360392
-0.1766613278862413 0.978108676975343 0.1099735934441252
-0.1803894793185372 0.9663149585706937 0.1835620783105948
-0.1833544320395009 0.9508923446648735 0.2493690059113423
-0.1859350539468753 0.9321916787923501 0.3105588989291279
-0.1884682251482023 0.9097604331788496 0.3698860396550782
-0.1912665039058253 0.8824745044093729 0.4297160382753643
-0.1946161836736909 0.848552654196237 0.4920192416042377
-0.1987534369292263 0.8055121918499336 0.5582536879322298
-0.203807712653135 0.7501459922651388 0.6290813989871639
-0.2097096149367531 0.6786596635891268 0.7038770762144282
-0.2160638471586674 0.5871746018043792 0.7800912773175099
-0.2220276108676096 0.4728315023651147 0.8527215901943433
-0.226292124352492 0.3355320529268781 0.9144452503647829
-0.2273408393835796 0.1797540219832041 0.9570813101974308
-0.2240799401306677 0.01497848036512775 0.9744556560239093
-0.216528691284371 -0.1467817372220431 0.9651789717294695
-0.2058079600377712 -0.2953792419101992 0.9329491878090933
-0.1935273782772424 -0.4250086168202909 0.8842594808570842
-0.1811860446980884 -0.5340760455639836 0.8257931912781794
-0.1698683011141714 -0.6238152504440043 0.7628887819270047
-0.160189197100648 -0.6968548571359632 0.6990942205584778
-0.1523799775155306 -0.7562224191255955 0.6363238132147802
-0.14640325345167 -0.8048001747652671 0.5752067159522403
-0.1420608438016085 -0.8450900552033362 0.5154042251037496
-0.1390577565745003 -0.8791390111187967 0.455826216299075
-0.1370348882089785 -0.9085186484247323 0.3947344738910575
-0.1355536026498387 -0.9342810708269988 0.3297637055574883
-0.1340542606955425 -0.956828630779458 0.2578922769492696
-0.1317793693890555 -0.9756305323609541 0.1754401953045645
-0.1277121845513271 -0.9887229983335734 0.07820761141599934
-0.1206299394318757 -0.9919683282199052 -0.03804278540364583
-0.1096925374993905 -0.9781544624735246 -0.1765825437580814
-0.09705279220213345 -0.9359378251185273 -0.3385279058484986
0 0 0
0.04068529258889856 0.7984837920701131 -0.6006399427013556
-0.05083092532269919 0.8918611704925337 -0.449443956015125
-0.08281946922124844 0.9502093255544235 -0.3004050151833653
-0.09676234366742538 0.9811005799796739 -0.1675670039462841
-0.1035800783420675 0.9931665355820778 -0.05377173951569832
-0.1067236814657538 0.9933815241591745 0.04246414103206996
-0.1075601797908911 0.9863871024106552 0.1243836481265219
-0.1067634929343121 0.9748447015547304 0.1956511293786306
-0.1047346157992355 0.9599811724655025 0.2597437367197629
-0.101753935975678 0.9420200795216461 0.3197566360397992