# OOMMF: rectangular mesh v1.0
# Segment count: 1
# Begin: Segment
# Begin: Header
# Title: 
# Desc: time = 3.2e-10
# Desc: stepsize = 1.2396405698745406e-13
# Desc: step = 2046
# meshunit: m
# valueunit: (none)
# valuemultiplier: 384000.0000000001
# xmin: 0
# ymin: 0
# zmin: 0
# xmax: 9.357999999999999e-08
# ymax: 9.357999999999999e-08
# zmax: 2.3395e-08
# ValueRangeMaxMag: 1
# ValueRangeMinMag: 0
# meshtype: rectangular
# xbase: 1.16975e-09
# ybase: 1.16975e-09
# zbase: 1.16975e-09
# xstepsize: 2.3395e-09
# ystepsize: 2.3395e-09
# zstepsize: 2.3395e-09
# xnodes: 40
# ynodes: 40
# znodes: 10
# End: Header
# Begin: Data Text
0 0 0
0 0 0
0 0 0
0 0 0
0 0 0
0 0 0
0 0 0
0 0 0
0 0 0
0 0 0
0 0 0
0 0 0
0 0 0
0 0 0
0 0 0
0 0 0
-0.8419358935249208 0.01867375244655741 -0.5392543390311824
-0.8511283639561723 0.0363315572784793 -0.5236988886898742
-0.8607443636439637 0.01659424261440462 -0.5087669128070352
-0.8652885348938354 -0.01862420267770401 -0.5009280292176701
-0.8630609605594095 -0.05820736885435907 -0.5017346714841632
-0.8541913503375382 -0.09356483551896594 -0.5114711708032439
-0.8407295667198925 -0.1134608904919912 -0.5294340581902014
-0.8289154778817398 -0.09527283292149401 -0.551200705583002
0 0 0
0 0 0
0 0 0
0 0 0
0 0 0
0 0 0
0 0 0
0 0 0
0 0 0
0 0 0
0 0 0
0 0 0
0 0 0
0 0 0
0 0 0
0 0 0
0 0 0
0 0 0
0 0 0
0 0 0
0 0 0
0 0 0
0 0 0
0 0 0
0 0 0
0 0 0
0 0 0
0 0 0
-0.7899953338796839 0.2312791425170463 -0.5678180436415402
-0.8172553071279588 0.2596453096707178 -0.5144687319334208
-0.8532297604012306 0.2415002039529652 -0.4622516927565916
-0.8886646383811063 0.192785631441379 -0.4160635297652577
-0.9194181086039125 0.1108224422619321 -0.3773443094341082
-0.9317787777798687 0.06963557714244809 -0.3562852728854946
-0.9392020679755068 0.03021460056513362 -0.3420329712516327
-0.942150394753362 -0.01299050539339853 -0.3349386218931872
-0.940131292242153 -0.05789082636870593 -0.3358598004665748
-0.9331906260841913 -0.1011209405250618 -0.3448620170095876
-0.9218526692493396 -0.1405593829367437 -0.3611519293404213
-0.9053200856210178 -0.181601069077823 -0.383948687041568
-0.8681781403945359 -0.2627412313091133 -0.4209914036073131
-0.8269860406376197 -0.3116780470919712 -0.4679218776157487
-0.7861373686532352 -0.3301716527330076 -0.5224698243329668
-0.7556401583371882 -0.3016899037840879 -0.5813700655029432
0 0 0
0 0 0
0 0 0
0 0 0
0 0 0
0 0 0
0 0 0
0 0 0
0 0 0
0 0 0
0 0 0
0 0 0
0 0 0
0 0 0
0 0 0
0 0 0
0 0 0
0 0 0
0 0 0
0 0 0
0 0 0
0 0 0
-0.7638696244641762 0.32669355624858 -0.5565739098508065
-0.8009077231466233 0.3537084179827804 -0.483153364939343
-0.854961624411587 0.3155843479881881 -0.411639575464228
-0.8880891163066017 0.2933378924835781 -0.3539076183568972
-0.9172262980941916 0.259240466443203 -0.3024736329710984
-0.9429336061939854 0.2097884622290181 -0.2585827051942746
-0.9630540602128612 0.1482512462637617 -0.2248298136119039
-0.97449097934262 0.09435707588011173 -0.2036272904382307
-0.9807204638192671 0.04335416243694811 -0.1905460271050317
-0.9828087216914096 -0.007738254825948563 -0.1844644572256268
-0.9808847306186375 -0.05911893627155224 -0.1853917382553029
-0.9749425815270921 -0.1100805916944644 -0.1933112155501725
-0.9647861560044425 -0.1608291590298289 -0.2081385470976692
-0.9491043601932088 -0.2143376632097376 -0.2307818874869266
-0.9240028953000423 -0.2753590885279143 -0.2653224864993818
-0.893428332731912 -0.3245215387165282 -0.3105987527034389
-0.8597525629915255 -0.3584036257469946 -0.3638301409736565
-0.8222702011504681 -0.380406533374603 -0.423276015935093
-0.7627357071568892 -0.4177212654335482 -0.4937035400242486
-0.7218985971183675 -0.3906270333322057 -0.5712030604860343
0 0 0
0 0 0
0 0 0
0 0 0
0 0 0
0 0 0
0 0 0
0 0 0
0 0 0
0 0 0
0 0 0
0 0 0
0 0 0
0 0 0
0 0 0
0 0 0
0 0 0
0 0 0
0 0 0
-0.7674903369432006 0.4077020986735468 -0.4947095930300897
-0.8177517380147015 0.4061238304799508 -0.4078547894658421
-0.8567154745302134 0.3949367632174028 -0.3317582685628676
-0.8938258890860006 0.3624828784051204 -0.2639724282245371
-0.9225083735637135 0.3251894326099669 -0.207918574503672
-0.9462601810285902 0.2807425634775182 -0.1605468244837333
-0.9660422024807339 0.227992644191806 -0.1215804968759401
-0.9812809566519226 0.1691355144444015 -0.09209159497975059
-0.9912268510509952 0.1105359525289845 -0.07246470143481974
-0.9967562581579591 0.05292108106940188 -0.06063267272180153
-0.9984558620398385 -0.004319315689182097 -0.05538262426302705
-0.9965212187783633 -0.06142691624614687 -0.05632223792582921
-0.9909409030342428 -0.1183778942726761 -0.06342555353519271
-0.9814745632734267 -0.175426777839549 -0.07702679575361271
-0.9674482156607614 -0.2332078717159842 -0.09827532032259846
-0.9479368789274031 -0.2910562807237752 -0.1292358890580183
-0.9239548242191348 -0.3427534319864684 -0.169786830065481
-0.8961185301923345 -0.3861641058664688 -0.2187438300530555
-0.8632690952025428 -0.4225355934675887 -0.2760980650442432
-0.8215195976603124 -0.4542764008062516 -0.3445845358261968
-0.7780668438291592 -0.4651270171871957 -0.4222189531703567
-0.723210027219249 -0.465455366736885 -0.5102142276587005
0 0 0
0 0 0
0 0 0
0 0 0
0 0 0
0 0 0
0 0 0
0 0 0
0 0 0
0 0 0
0 0 0
0 0 0
0 0 0
0 0 0
0 0 0
0 0 0
-0.6641928456100969 0.4986791678882647 -0.5569263428449307
-0.71480051268525 0.5327252001539786 -0.4530607996569625
-0.7933947714050642 0.4968452025897437 -0.3516668613484381
-0.8419500554979321 0.4689365219484672 -0.2668682117261311
-0.8777803991537068 0.4377084716435135 -0.1947122613320946
-0.9077652404835347 0.3978231327173268 -0.1330376760351824
-0.9323661550418164 0.35211278224096 -0.0819142326770459
-0.9528117660206006 0.3009483926263217 -0.03974674210972347
-0.9696491388543789 0.2444311901554947 -0.00582587316451633
-0.9827494504420519 0.1838803277941315 0.01978743809003622
-0.991842872309085 0.1218790798016788 0.03732568226247906
-0.9970685311172253 0.05965059015069939 0.04791817348784768
-0.9986177018023922 -0.002497739069791627 0.05250187564694121
-0.996588417926525 -0.06447473884049672 0.0515221632518947
-0.9909846345342184 -0.1261922825783507 0.04499957705074784
-0.9817125263714949 -0.1875698455571195 0.03252796647462987
-0.9685860990342381 -0.2483279432658443 0.0131985359412293
-0.9515050753496463 -0.3073088934681639 -0.01411862526012915
-0.9308360557730745 -0.3620430832716278 -0.04968946697236956
-0.9066897059349397 -0.411332111131402 -0.0933791813189402
-0.8783612204211395 -0.4552273778593102 -0.1457724284891437
-0.8443867919616251 -0.4935376819576878 -0.2084022601810895
-0.8041932513566699 -0.5235620125868614 -0.2813468205762815
-0.750350270388129 -0.5504266316482379 -0.3660669268055174
-0.6646825918237191 -0.5850770957897671 -0.4646308686567371
-0.6089522374961082 -0.5508480369791174 -0.5707395313141854
0 0 0
0 0 0
0 0 0
0 0 0
0 0 0
0 0 0
0 0 0
0 0 0
0 0 0
0 0 0
0 0 0
0 0 0
0 0 0
-0.6427749263497348 0.5455512470493796 -0.5377864175478583
-0.7049796219231748 0.5677353624231575 -0.4250650431725747
-0.7554226669319711 0.5716219614442869 -0.3202888188494464
-0.8061482559326479 0.5475017957727156 -0.2244254287784715
-0.845894217902379 0.5135219910574593 -0.1440768434541255
-0.8775223851141287 0.473263702807143 -0.07730414755291129
-0.9040059554080675 0.4269667786559968 -0.02173942296537354
-0.9264630884392657 0.3756210033773827 0.02397931569801306
-0.9455254870852617 0.3197370681410392 0.06123528826379494
-0.9614034247768113 0.2596975806738681 0.09088796080646347
-0.973962272935943 0.1963578216802923 0.1133185631854793
-0.982953873738892 0.1310635878225055 0.1289341616826123
-0.988244598999632 0.06485936577852634 0.1384408726455565
-0.9897949507521377 -0.001635214813619893 0.1424895839634806
-0.9876066531861984 -0.0680239735242187 0.1414419937936808
-0.9817033846020945 -0.133969169814752 0.1353171319528221
-0.9721324893661816 -0.1990842984011947 0.1237896007296822
-0.9589892729903791 -0.2627785321160609 0.1062403753208356
-0.9424733038917826 -0.3240713232401634 0.08198688251590136
-0.9228886490633254 -0.3817220201793691 0.05064425673510318
-0.9003488861298771 -0.4350066379796107 0.01187889550271944
-0.874528587290292 -0.4837010799808156 -0.03511431670184845
-0.844606036150317 -0.5274777550979394 -0.09169439227830091
-0.8092200899471054 -0.5655196085623782 -0.1592181470732919
-0.7649969302710898 -0.5976932673636789 -0.2398800842586535
-0.7087924310741275 -0.620531770801418 -0.3354901057826951
-0.652845178575752 -0.6160473561825122 -0.4407707201606417
-0.5852479664866514 -0.5927761791602428 -0.5532641495193975
0 0 0
0 0 0
0 0 0
0 0 0
0 0 0
0 0 0
0 0 0
0 0 0
0 0 0
0 0 0
0 0 0
-0.6003160408835393 0.5915795057007762 -0.5381954472984116
-0.6678812331770453 0.6177345796962884 -0.4151369020183083
-0.7202808987460264 0.6243651483534436 -0.3022641037622529
-0.7634222569791856 0.6136264753908137 -0.2016159870849837
-0.8021676655546334 0.5862012082253116 -0.1135569452469288
-0.8353857811077012 0.5482229965526755 -0.03977615836000562
-0.8638842777999391 0.5032469531136778 0.02112957055589541
-0.8887836939340785 0.4527510421178204 0.07127439412665144
-0.9106704253511545 0.3975637260137808 0.1123497225131689
-0.9297458218107463 0.3381537618648842 0.1456871310791953
-0.9459281237396058 0.2749179871482965 0.1721629607691429
-0.9589373969791568 0.2084830150327011 0.1922859878350803
-0.9684231217259117 0.1397471953418829 0.206463988871466
-0.9740933031262502 0.06961441810091111 0.2151652146539076
-0.9757652464505983 -0.001148891588097511 0.2188169643042362
-0.9733699245521411 -0.07189237025361007 0.2176751641246112
-0.9669490365782123 -0.1420079153254814 0.2117623966746155
-0.956656414279085 -0.2108565683120132 0.2008681473463729
-0.9427620028427788 -0.2777037010227669 0.1846089392042792
-0.9256400802822256 -0.3417098445864429 0.1625571403778474
-0.9056968021064725 -0.4020770933121767 0.1343402906344165
-0.8832090590085498 -0.4583068084330875 0.09948179446063773
-0.8581845431715086 -0.5101528003088577 0.05712626539989209
-0.8302775003466063 -0.5573185295181151 0.005943826541574801
-0.798684473219843 -0.5991605972826577 -0.05576460258470502
-0.7619849257413797 -0.6343923327733345 -0.1300974291110707
-0.7191027412507178 -0.659665409469959 -0.2184783629436416
-0.6711581186506778 -0.6689869542236287 -0.3193794527640669
-0.6130986153904511 -0.6614389775999781 -0.4319821370355569
-0.5395833215326276 -0.6341068743730432 -0.5538576631199267
0 0 0
0 0 0
0 0 0
0 0 0
0 0 0
0 0 0
0 0 0
0 0 0
0 0 0
-0.5573470364362432 0.6158456740884486 -0.5568647831226901
-0.6215662486155842 0.6579822779978113 -0.4251055403341154
-0.6734426002231831 0.6746078923675114 -0.3022900192862829
-0.7160365605472429 0.6707271471403318 -0.1934340664119573
-0.7523904111445351 0.6511888102943116 -0.09930660886988206
-0.7849953265100372 0.6192079896845744 -0.01907361707142695
-0.814512223415114 0.5781596589689719 0.04797131067887164
-0.8413961427291039 0.530429512113767 0.1034266101123696
-0.8659855190722073 0.4773063899362112 0.1491565985241695
-0.8883603625549116 0.4194565637609377 0.1867406151836602
-0.9083606567261001 0.3572586300779318 0.2173641841402746
-0.9256414989949154 0.2910603482024976 0.2418091996651208
-0.9397384437824424 0.2213775519053125 0.2605448844052848
-0.95015552849206 0.1489517198915218 0.2738938787511159
-0.956461682004493 0.07465572438061849 0.2821481413625487
-0.9583598186214782 -0.0006072222950825514 0.2855627590091033
-0.9557228155315535 -0.07594494908111035 0.2842996035549594
-0.9486075485957712 -0.1504767594911254 0.2783890507907429
-0.9372549008538429 -0.2233254377014056 0.2677293403811537
-0.922072619896032 -0.2936249105205635 0.2521239686341983
-0.903589798619991 -0.3605698783548361 0.2313327444463107
-0.8823703321354954 -0.4235181801835895 0.2050730309452591
-0.8588985871547715 -0.4820780106106939 0.1728988394095588
-0.8334814530187127 -0.5360447158988279 0.1340325707832227
-0.8061783319729359 -0.5852007117174453 0.08727327232738286
-0.7767382014930078 -0.6290595193527009 0.03101431045752696
-0.7445746891059478 -0.6665330465847766 -0.03663645934307128
-0.7089311182749495 -0.6954541826500338 -0.1173036630971194
-0.668827775686227 -0.71263919527659 -0.2116950255111058
-0.6213935769917287 -0.7149469136445464 -0.3205010657448136
-0.5635459119157989 -0.697356817390225 -0.442842493898639
-0.4932206844387392 -0.6540001260266814 -0.5736002018818209
0 0 0
0 0 0
0 0 0
0 0 0
0 0 0
0 0 0
0 0 0
0 0 0
-0.5895436593892185 0.6706319421499426 -0.4502122519902857
-0.6242433683775382 0.7128161703200592 -0.3197081862682107
-0.6624284584335589 0.721512017664997 -0.201516614258783
-0.6972509145196214 0.7099189409718886 -0.09927869585617766
-0.7287848943708402 0.6846290224795443 -0.01247715174172865
-0.7581426209334391 0.6492635510836937 0.06063503573320478
-0.7859479230874855 0.6061770838020887 0.1217998574205353
-0.8124328392412105 0.5568603773885199 0.1727987321052442
-0.8375661020132535 0.502128919977788 0.2152895085234383
-0.8610968150161986 0.442386379480692 0.2506123828124286
-0.8825908087329235 0.3778677951504295 0.2797309309467156
-0.9014737547544173 0.3088417817706925 0.3032520788414742
-0.9170866389568318 0.2357623779806926 0.3215092499069818
-0.928762720812345 0.1593344614648473 0.3346824432487557
-0.9359188264566966 0.0804850698171331 0.3428966372253457
-0.9381395636232429 0.0002917869670308714 0.346257236783806
-0.9352371600768301 -0.08008783372598995 0.3448440129979108
-0.9272816642631522 -0.1594767415920242 0.3386973339318584
-0.9145990999036012 -0.2367368130041052 0.327817278105016
-0.8977361754708748 -0.3108344097652471 0.3121725948202637
-0.8773901040375849 -0.3809160983620998 0.2917010993217378
-0.8543113562872741 -0.4463793554993699 0.266265990134987
-0.8291998333202746 -0.5068947246979723 0.2355533368368929
-0.8026203958864573 -0.5623337770571223 0.1989503035628152
-0.7749405815971072 -0.6126153033354755 0.1554657039771783
-0.7462781463786016 -0.6575042933899955 0.1037161145215168
-0.7164515971163536 -0.6963716714588079 0.04199528758195975
-0.6849280758484384 -0.7279285328333167 -0.03152113579314502
-0.6506934687746576 -0.7500217850014858 -0.118597351223322
-0.6121895199551745 -0.759201145186797 -0.2209923365280076
-0.5691285485910474 -0.7489277314957981 -0.3394111786244006
-0.5292793826272788 -0.7055292412019135 -0.4712661932864889
0 0 0
0 0 0
0 0 0
0 0 0
0 0 0
0 0 0
0 0 0
-0.4700935771733608 0.7288359010975959 -0.4978054418862941
-0.5537452679859592 0.7546801708933982 -0.3518863706418152
-0.6000272534509252 0.7678576519564283 -0.2244146195061703
-0.6357934307094429 0.7634657615503749 -0.1135197974232797
-0.667027120498897 0.7447913138909139 -0.01899261097361387
-0.6959831841690797 0.7154858612027634 0.06072388140433991
-0.7238471730039139 0.678018590808389 0.1278125997405894
-0.7511586649636182 0.6338578547171211 0.1843498849022769
-0.7780124898670623 0.5837905080365509 0.2321318770382031
-0.8041945616188808 0.5281578191910803 0.2726177270280447
-0.8292595834318711 0.467060980416459 0.3068918113257745
-0.8525784944157443 0.4005466541930581 0.3356669311602336
-0.873380529029592 0.3287713491902441 0.3593269423013197
-0.8908089108678336 0.2521336196523356 0.3780054525525719
-0.9040015961241686 0.1713499053867478 0.3916890656233682
-0.9121950141478584 0.08745876596796277 0.4003139023555751
-0.9148319633151101 0.001764716188754449 0.4038308614677601
-0.9116503079533713 -0.08425743599112452 0.4022367468155093
-0.902731674685514 -0.1690810196591935 0.3955845450854902
-0.8884988287963888 -0.2512552461529953 0.3839799897234782
-0.8696594834175686 -0.3295272127475388 0.3675652308920487
-0.8471079624153741 -0.4029402118406397 0.3464784058123863
-0.8218055077901877 -0.4708875753032725 0.3207812319801702
-0.794667307907911 -0.5331009244623781 0.2903571491796792
-0.7664746517196672 -0.5895666597726908 0.2548092658356166
-0.7378134718492999 -0.6403889106561623 0.2133853881274334
-0.7090224683811718 -0.6856243367792038 0.1649436514290452
-0.6801315918225974 -0.7250972025149074 0.1079586249908469
-0.650765699987267 -0.7581938261211638 0.04057247529831229
-0.6199920094341395 -0.7836215896581202 -0.03933335047383858
-0.5861226406627265 -0.799073082721385 -0.133949462756274
-0.5463776506875301 -0.8009725596576759 -0.2447742255724764
-0.4944207562964779 -0.7857728819079565 -0.3716303187325853
-0.4033418372429275 -0.7571919898980556 -0.5137856097281454
0 0 0
0 0 0
0 0 0
0 0 0
0 0 0
-0.3950013114114328 0.7279474619032519 -0.560416324433774
-0.4684715195038339 0.782705178038272 -0.4097646149752869
-0.5257914777695255 0.8074510097811499 -0.2675185763799203
-0.5667559163100504 0.8111626472557936 -0.1442320734945167
-0.5994769589978691 0.7994075770269778 -0.03968502768706646
-0.6284943871747088 0.7763183464908099 0.04821441891863572
-0.6560776485746123 0.7447500628447179 0.1221043116912569
-0.6833455410349019 0.7063751750329113 0.1845886877491159
-0.7107536551601505 0.6619957887993925 0.2378882453765962
-0.738320361684598 0.6118576634562075 0.2837485562814976
-0.7657469403741116 0.5558871136449932 0.3234519132593356
-0.7924832855964903 0.4938761267700934 0.3578499873644841
-0.8177667365551218 0.4256450622285853 0.387406563682663
-0.8406590705978619 0.351195496399889 0.412254836636241
-0.8601031413455109 0.2708471555894911 0.4322781564648684
-0.8750150143570102 0.185336365377123 0.4472126522344804
-0.884411863411112 0.09584988676063624 0.4567586398369021
-0.8875577588069186 0.003978628457362768 0.4606792759580546
-0.8840928241399419 -0.088408080571253 0.4588724110185397
-0.8741092061679231 -0.1793492821197154 0.4514055058322012
-0.858147463086455 -0.2670038033382934 0.4385110039681633
-0.8371129754954714 -0.3498398465821979 0.4205400670571852
-0.812135843347465 -0.426762333214702 0.3978809908747145
-0.7844143953464568 -0.4971553399932058 0.370851215839306
-0.7550777773005707 -0.5608395354461831 0.3395829290575989
-0.7250883835052234 -0.6179632946517317 0.3039213756367893
-0.6951799453027345 -0.6688580307258197 0.2633510554041216
-0.6658139291182587 -0.713880901767647 0.2169466982544716
-0.6371276663789008 -0.7532513562869572 0.1633423735178186
-0.6088496809705379 -0.786866706258035 0.1007117300253786
-0.5801543357139399 -0.8140664037657693 0.02677381205924308
-0.5494165986349114 -0.8333121916116348 -0.06109167255737802
-0.5137394445958101 -0.8418431004441527 -0.1654447862610485
-0.4679414293747593 -0.8354907332540203 -0.2880729999867498
-0.4036267260694725 -0.8084172643152121 -0.4284238470948447
-0.3226805702560728 -0.751315119119737 -0.5756759864379531
0 0 0
0 0 0
0 0 0
0 0 0
-0.4206540454465981 0.7681388457713629 -0.4827140848022242
-0.4564725235046317 0.8253374046748073 -0.3323416972484286
-0.4947986945937046 0.8468382815081305 -0.1950363473835623
-0.5278083134140024 0.845842161426379 -0.07726203624430839
-0.5567524731563019 0.8304007158998147 0.02147870264741723
-0.5837599488252025 0.8052377834836546 0.1040020874690853
-0.6103072442535884 0.7729324142056206 0.1734951027604557
-0.6372114073199074 0.7346859790920791 0.2328049280124791
-0.6648036480755213 0.690842142665593 0.2842063395188265
-0.6930518721579866 0.6412392287918929 0.3293802573875483
-0.7216270897109734 0.5854487388209841 0.3694646364784983
-0.7499337799996861 0.5229540237386698 0.4051153103388175
-0.7771247182276388 0.4533107024504199 0.4365622285121781
-0.8021220078435491 0.3763101688306942 0.4636711564974114
-0.8236689933986742 0.2921446330704833 0.4860256193676695
-0.840433229858546 0.2015488318778397 0.5030408080048874
-0.8511675294451145 0.1058769044494788 0.5141049678056954
-0.8549089067623041 0.007071171627850767 0.5187299486922755
-0.8511680400642077 -0.09250110072715884 0.5166783466892323
-0.840045578633652 -0.1903254119461656 0.5080351005448089
-0.8222292794698574 -0.284065439730933 0.4931995923892784
-0.7988691341315151 -0.3718442692346703 0.4728001120656555
-0.7713769506408346 -0.4524093824555496 0.4475526233709672
-0.7412142393838386 -0.5251593435183135 0.4181018001038156
-0.7097217064759714 -0.5900555899701501 0.3848759541746046
-0.6780101503077435 -0.6474672269419767 0.3479776230100687
-0.6469064334441954 -0.6979941539561811 0.3071094713803281
-0.6169283077574693 -0.7422966449651888 0.2615246718015893
-0.5882615333606673 -0.7809325266773065 0.2099827544003402
-0.5607119334289405 -0.8141809265357376 0.1507035055192373
-0.5336135155651741 -0.841808639969312 0.08133160320067734
-0.5056769100154166 -0.8627223307957844 -0.001021089393150871
-0.4748099228227466 -0.8744439412489622 -0.09951548021307266
-0.4382088468937388 -0.8723241256933459 -0.2168493168940095
-0.3942635708851607 -0.8483266738166345 -0.3534092403490415
-0.3520158894207774 -0.7890558523343266 -0.503463678424023
0 0 0
0 0 0
0 0 0
-0.3047919078879996 0.7612771945065108 -0.5723276386915878
-0.3825585894166752 0.826655885153046 -0.412660845253529
-0.4238553707812603 0.8662990450633654 -0.2643342376276308
-0.4556805462016791 0.880152873428926 -0.1329893199025528
-0.4832768770710486 0.8752085175851835 -0.02129579382882193
-0.5088521886404698 0.8578308789418737 0.07208074118386587
-0.5338648332529703 0.8321120682728624 0.1502592614464632
-0.5592650600449823 0.800196224935416 0.2165839195600423
-0.5855950879780537 0.7629075408978635 0.2739534211816851
-0.6130728679850613 0.7202503434179763 0.324624554442294
-0.6416401950002175 0.6717451367768758 0.3702111983404862
-0.6709760357752964 0.6166523190414694 0.4117415170177103
-0.7004865559767036 0.5541431974525938 0.4497153562120279
-0.7292864492374139 0.4834653587252723 0.4841513419080111
-0.7561932179753398 0.4041308567880422 0.5146358593023446
-0.7797624296691734 0.3161305943085591 0.5403998525337921
-0.7983951616126977 0.2201466166292077 0.5604468155856952
-0.8105346308025687 0.1177001180645178 0.5737423589707678
-0.8149357045525348 0.01115353793694352 0.5794440404706498
-0.8109396249983376 -0.09649603302041658 0.577118220314415
-0.7986526401870853 -0.2020215827282887 0.5668696855840454
-0.7789443195020159 -0.3024573128254605 0.5493317040131055
-0.7532631976000795 -0.3955095104852644 0.5255157297902788
-0.7233484257287155 -0.479767429830512 0.496578562031843
-0.6909446589668886 -0.5546960141786728 0.4635815031894854
-0.6575919800192341 -0.6204735809526503 0.4273000387949635
-0.62451316744726 -0.6777612268472881 0.3881018204897371
-0.5925774882352343 -0.7274730568628399 0.3458827431015536
-0.5623077203554367 -0.7705783463487136 0.3000317312671328
-0.5338942426484576 -0.8079338135292354 0.2493990589856662
-0.5071925012227091 -0.8401158586167304 0.192252726389316
-0.4816843995650226 -0.8672049753934403 0.126236563120776
-0.456398246852577 -0.8884589450269414 0.04838742885820047
-0.4298010669598897 -0.9018191445672959 -0.04464608977334865
-0.3997309748785622 -0.9032766822548306 -0.1559050448745627
-0.3633398709426442 -0.8865051204414468 -0.2865184280538998
-0.3152654535509361 -0.8443234371389357 -0.4332731555211052
-0.229403131048533 -0.7758634428326904 -0.5877160211708828
0 0 0
0 0 0
-0.3320416022267237 0.7912996725145454 -0.5134132864165893
-0.3597011657290775 0.8634544762081644 -0.3536402676297289
-0.3867378457819988 0.8985236380174167 -0.2075791669793587
-0.4111113534360797 0.9079556212056279 -0.08126527546902428
-0.4339512149484883 0.9005887119414924 0.02502628554727555
-0.4563871718320828 0.8824728572798828 0.1138086356626422
-0.4792666682412789 0.8571723903464096 0.1885708194305938
-0.5031647014006929 0.8264119015666691 0.2527224806251175
-0.528427018470497 0.7906959648773041 0.3091355322138324
-0.5551990429351432 0.7497603077616296 0.3600187545518802
-0.5834271119531788 0.7028652173130246 0.4069315560748358
-0.6128333848172599 0.6489893696027765 0.4508303900537435
-0.6428704861839987 0.5869847209845186 0.4921041305702232
-0.6726675825384519 0.5157442696194557 0.53059039923143
-0.7009882452276502 0.4344197061518754 0.5655926086500576
-0.7262353399140268 0.3427020847063986 0.5959341508907219
-0.7465478779096995 0.2411365813537875 0.6200962950393527
-0.7600288302718391 0.1313847136837605 0.6364701361146926
-0.7650978168306227 0.01629585704946646 0.6437078341328756
-0.7608830932350086 -0.1003420753690842 0.6410837592231996
-0.7474908884556148 -0.2143864289736523 0.6287255607558514
-0.7260085170098437 -0.3220768786810894 0.6076002941475699
-0.6982329538885677 -0.4206314168098317 0.5792581059394838
-0.6662639505884641 -0.5085052220695729 0.545449161035404
-0.6321278563944576 -0.585314172419971 0.5077614525881929
-0.5975321284659341 -0.651553406812354 0.4673687126051387
-0.5637604880452532 -0.7082587907426323 0.4249042215073431
-0.5316708858442023 -0.7567063500999341 0.3804228816252726
-0.5017421587423593 -0.7981836862738297 0.3334030730315437
-0.4741297865062227 -0.833819757661907 0.2827464540541609
-0.4487016006957952 -0.864434977966561 0.2267576733012173
-0.4250413718126494 -0.8903565883068274 0.1631103243398372
-0.4024128032881459 -0.9111367260222611 0.08884707222643946
-0.379697266791852 -0.9251106496141692 0.0005211153866330863
-0.355351326155922 -0.9287800279979217 -0.1053237608111604
-0.3275175607325905 -0.9161519529817062 -0.2310797404784304
-0.2947246646913949 -0.8783731936911301 -0.3762949702392906
-0.2602216715854552 -0.8037020825234747 -0.5351146084575721
0 0 0
0 0 0
-0.3126891544053998 0.8314472680071576 -0.4592612908145745
-0.3251108311990306 0.8964885766122063 -0.3010169088953231
-0.3427166227635975 0.9258269980159461 -0.159341414033812
-0.3612715746135949 0.9316726044130926 -0.03832763444745842
-0.3801450557158718 0.9227750654593379 0.06305485850662713
-0.3996385579772434 0.9046506446280242 0.1479737617010832
-0.420169331979792 0.8803459650960703 0.2201106862529015
-0.4420780933563317 0.8512064785912113 0.2828683265740079
-0.465599263245498 0.8174678271018814 0.3390629406446202
-0.4908527710159351 0.7786485353623795 0.3908580504019313
-0.5178204162624971 0.7337916028379947 0.439786198176091
-0.5462989460419396 0.6816186289232267 0.4867787035792401
-0.5758308898345286 0.6206585656925748 0.5321670143336679
-0.6056193364912651 0.5494081135145473 0.5756526244813496
-0.6344459225909637 0.4665746101607537 0.6162682082186625
-0.6606309703364618 0.371431836308108 0.6523841751675855
-0.6820995881354454 0.2642697028816348 0.6818369863862677
-0.6966223478334475 0.1468274692164552 0.7022528026163409
-0.7022544258574768 0.02249474942703687 0.7115705921493664
-0.6978738946939991 -0.1039658752333451 0.7086346900142506
-0.6835792011943271 -0.2272500529534252 0.6935970653968992
-0.6606998780162636 -0.3426135221391208 0.6679009250156193
-0.6314077395354206 -0.4467264516046837 0.6338452049920845
-0.5981582751371468 -0.537969847966578 0.5939655887033941
-0.5632178950925084 -0.6162292729070394 0.5504971261142282
-0.5283950846277661 -0.682435732132574 0.5050545574983885
-0.4949650764757524 -0.7380845358465289 0.4585202187620147
-0.4637137323733276 -0.7848556725959885 0.4110610022883412
-0.4350306069365293 -0.8243587826786034 0.362189133532586
-0.408999712883398 -0.8579717086795308 0.3108114894382506
-0.385464977190916 -0.8867177133884572 0.2552419403670798
-0.3640571432357233 -0.91112164594755 0.1931831844257431
-0.3441845321136844 -0.9309793592538729 0.1217145862127102
-0.3250012043443592 -0.9449749507161159 0.03737057256437724
-0.3054211721886388 -0.9500951084848681 -0.06353890471234121
-0.2843927785157923 -0.9408590617119028 -0.1841330321334672
-0.2620868116351306 -0.9085254676902031 -0.3254104757459855
-0.2437447469751972 -0.8406512627445576 -0.4836258396404985
0 0 0
0 0 0
-0.2632745499744457 0.8718344901890708 -0.4130267945939044
-0.2754783055971141 0.9264463974575937 -0.256532211979682
-0.290575358608674 0.9493455406955793 -0.1196202546848075
-0.3061155961392568 0.9519875932418037 -0.00358665777357535
-0.3220803841524206 0.9420749079002052 0.09359003178249446
-0.3388481678286458 0.9243435228165701 0.1754165641728915
-0.3567736639886748 0.9013192173703002 0.2456343239107373
-0.3761319832819876 0.8740156985195007 0.3076057377452952
-0.3971268442547939 0.8424501006868417 0.3640990214556453
-0.4198904418282651 0.8059699433567218 0.4172582740543632
-0.4444593746346987 0.7634410098004225 0.4686295859783534
-0.4707240799581777 0.7133575143704274 0.519172319407316
-0.4983500518769181 0.6539351923369962 0.5692240244556166
-0.5266731230909317 0.5832513103433755 0.6184119423138422
-0.5545818246094489 0.4994992161597522 0.6655370259186536
-0.5804265805370532 0.4014168267432101 0.7084980704373686
-0.6020321654218326 0.2888953863082219 0.7443767376586413
-0.6169202568422885 0.1636478934586264 0.7698238523611736
-0.6228133569298664 0.02962513931364206 0.7818093588275836
-0.6183333010785501 -0.1072493310672722 0.7785637480405344
-0.6035600661493741 -0.2402383790653863 0.7602636172892914
-0.5800568475484376 -0.3634212346451806 0.7290123866033693
-0.5503343370112745 -0.4728937105005121 0.6881160193422459
-0.5171261045310697 -0.5670654938949571 0.6411063231993493
-0.4828317137254119 -0.6462371919562998 0.5909746423945934
-0.4492541702862257 -0.711895635710728 0.5397918991022861
-0.4175731249257358 -0.7660650075125127 0.4886482268509821
-0.3884444223728115 -0.8108505513727254 0.4377582826926286
-0.3621327624843186 -0.8481725287022156 0.3866047385772252
-0.3386290406086137 -0.8796267605953768 0.3340466058815339
-0.3177281232076014 -0.906399325701732 0.2783686442299493
-0.2990641590570665 -0.9291665270361044 0.2172790689485603
-0.2821013545122192 -0.9479170863619729 0.1478919306973798
-0.2660923844536568 -0.961632511004061 0.06676643405028619
-0.2500394736197336 -0.9677749873994452 -0.02986361324370218
-0.2327974246333656 -0.961584993623782 -0.1454636006759857
-0.2137906477563264 -0.9353002099846933 -0.2819699915496646
-0.1961244091855716 -0.877238251678202 -0.438164656167269
0 0 0
-0.09672951113736938 0.8325199093150378 -0.5454851072845217
-0.1821468005785854 0.9081474490902428 -0.3769492721174418
-0.2142356704532462 0.9510105698097205 -0.222894534737032
-0.2324467738072071 0.9684775635561454 -0.0895528125464104
-0.2468376732083455 0.9687875026192535 0.02284595924532614
-0.2604778280684188 0.9583678967743312 0.1169712593635858
-0.2745126034857812 0.9412692923058464 0.1966086210966048
-0.2894708490327222 0.9196067836948335 0.2655748311544558
-0.3056567810685648 0.8941442933095505 0.3272306754092094