# OOMMF: rectangular mesh v1.0
# Segment count: 1
# Begin: Segment
# Begin: Header
# Title: 
# Desc: time = 8.4e-10
# Desc: stepsize = 1.000578471425024e-13
# Desc: step = 5374
# meshunit: m
# valueunit: (none)
# valuemultiplier: 384000.0000000001
# xmin: 0
# ymin: 0
# zmin: 0
# xmax: 9.357999999999999e-08
# ymax: 9.357999999999999e-08
# zmax: 2.3395e-08
# ValueRangeMaxMag: 1
# ValueRangeMinMag: 0
# meshtype: rectangular
# xbase: 1.16975e-09
# ybase: 1.16975e-09
# zbase: 1.16975e-09
# xstepsize: 2.3395e-09
# ystepsize: 2.3395e-09
# zstepsize: 2.3395e-09
# xnodes: 40
# ynodes: 40
# znodes: 10
# End: Header
# Begin: Data Text
0 0 0
0 0 0
0 0 0
0 0 0
0 0 0
0 0 0
0 0 0
0 0 0
0 0 0
0 0 0
0 0 0
0 0 0
0 0 0
0 0 0
0 0 0
0 0 0
-0.8368455671509831 0.02110765896772961 -0.5470319583650034
-0.8463877249138624 0.0396479846356748 -0.5310893111609991
-0.8565140636529581 0.02046429629305225 -0.5157178214313775
-0.8616091051602668 -0.01437708624946256 -0.5073687508074374
-0.8599208588730735 -0.05368895897620048 -0.507595914245817
-0.8515533491625403 -0.08882853028286458 -0.5166878997401101
-0.8385352520065313 -0.1085018539055794 -0.5339344330921115
-0.8270569057026529 -0.08999378582563478 -0.5548675456740305
0 0 0
0 0 0
0 0 0
0 0 0
0 0 0
0 0 0
0 0 0
0 0 0
0 0 0
0 0 0
0 0 0
0 0 0
0 0 0
0 0 0
0 0 0
0 0 0
0 0 0
0 0 0
0 0 0
0 0 0
0 0 0
0 0 0
0 0 0
0 0 0
0 0 0
0 0 0
0 0 0
0 0 0
-0.7831794516770612 0.2323368797735064 -0.5767577661097666
-0.8109130367947758 0.2618280755629013 -0.5233221814554598
-0.8476223209377959 0.2444084785987856 -0.470957425503676
-0.8839032307599144 0.1960894541834776 -0.4245750871285441
-0.9155360190958979 0.1141738858950026 -0.3856917441658169
-0.9284118168835208 0.07339913680947888 -0.3642307853362513
-0.9363180096211426 0.03437060032037036 -0.3494670895702749
-0.9397412312389735 -0.008528952406187944 -0.3417801563583094
-0.9381761663698713 -0.05320609324948389 -0.3420447229481229
-0.9316619464847986 -0.09627561928309671 -0.35033844008874
-0.9207323451474726 -0.1356021966414147 -0.3658742856026615
-0.904633680580548 -0.1766095493465795 -0.38787494252515
-0.8680876328851694 -0.2580046744553638 -0.4240960381694271
-0.827340017198384 -0.3072060646392553 -0.4702477323613999
-0.7868470134215449 -0.3259278795132652 -0.5240637316449029
-0.7566038609477643 -0.2975807925491921 -0.5822338615236407
0 0 0
0 0 0
0 0 0
0 0 0
0 0 0
0 0 0
0 0 0
0 0 0
0 0 0
0 0 0
0 0 0
0 0 0
0 0 0
0 0 0
0 0 0
0 0 0
0 0 0
0 0 0
0 0 0
0 0 0
0 0 0
0 0 0
-0.7568682170204487 0.3267649017282743 -0.5660169618154542
-0.7944781614238313 0.3549573762768665 -0.4927572546875904
-0.8494741562141219 0.3174820986751117 -0.4214246966483474
-0.8832879563545063 0.2960154865207332 -0.3635618487946345
-0.9131364308502706 0.2625469120017659 -0.3118508900939116
-0.9395730017935751 0.2135264022664718 -0.2675986730829339
-0.9603755755533869 0.152267439889853 -0.2334381730349386
-0.9723317069161767 0.09868902908405143 -0.2117345679475151
-0.9790134664922372 0.04798187194629822 -0.1980665857518165
-0.981522385846049 -0.002874609807270641 -0.1913257502312091
-0.9799940045044695 -0.0540904449953118 -0.191535831884016
-0.9744256385595028 -0.1049576133038765 -0.1986921597030406
-0.9646310483296012 -0.1556856346067001 -0.2127179441787716
-0.94931677022136 -0.2092720480068799 -0.2345269274507538
-0.9245978391929744 -0.2705152905981728 -0.2682169146647318
-0.8943490157814599 -0.3199547823270039 -0.3126799885454983
-0.8609663368860444 -0.3541272954974338 -0.3651449374326567
-0.8237949535344995 -0.3764391965167458 -0.4238577660688997
-0.7647329362273011 -0.4141899439005819 -0.4935891273324433
-0.7241811073687867 -0.3874729348449221 -0.5704616100078775
0 0 0
0 0 0
0 0 0
0 0 0
0 0 0
0 0 0
0 0 0
0 0 0
0 0 0
0 0 0
0 0 0
0 0 0
0 0 0
0 0 0
0 0 0
0 0 0
0 0 0
0 0 0
0 0 0
-0.7610054227251949 0.4076471877720643 -0.5046726829187151
-0.8120688352079648 0.4070638587835968 -0.4181425854372965
-0.8517575564002756 0.3968268941874667 -0.3421074117357874
-0.8896464182238201 0.3651343512215337 -0.274237408278952
-0.9190084722531108 0.3285282890637693 -0.2179279495884708
-0.9434053509009841 0.2846530996251433 -0.1701733139043508
-0.9638074942487016 0.232342653239128 -0.130736397058511
-0.979613777847301 0.1738194311738588 -0.1007156968805479
-0.9900395579803626 0.1155095465061515 -0.08049359167033511
-0.9959899188367383 0.05813954490512474 -0.06799908009533435
-0.9980741084167637 0.001083618035785836 -0.06202338172039479
-0.9964974232595295 -0.05591085209879171 -0.06218409808547865
-0.9912530309772144 -0.1128261341539539 -0.06846672206524028
-0.982104791880445 -0.1699238766467773 -0.08121609391492529
-0.9683815999526867 -0.2278501747825682 -0.1015941667844523
-0.9491540647341422 -0.2859459059033341 -0.1316871303346561
-0.9254220767579874 -0.3379562086688779 -0.1714047282635185
-0.8978189833436924 -0.3817200190935698 -0.2195698070566678
-0.8652173745043829 -0.4184868015710554 -0.2761660583174003
-0.8237660108653819 -0.4506912964696702 -0.343928647584674
-0.7806176371866439 -0.4620368840673704 -0.4209014400954881
-0.7261745302151064 -0.4629286606067781 -0.5082987378065023
0 0 0
0 0 0
0 0 0
0 0 0
0 0 0
0 0 0
0 0 0
0 0 0
0 0 0
0 0 0
0 0 0
0 0 0
0 0 0
0 0 0
0 0 0
0 0 0
-0.6566071368710706 0.49778643138715 -0.5666354529473253
-0.707990714163633 0.5331132188344161 -0.4631840288287971
-0.7879324725063126 0.4979136294826961 -0.3622767400005923
-0.8374045215123459 0.4708321703773038 -0.2776161643141047
-0.8739834755682341 0.4404184055964125 -0.2053886862648063
-0.9046556497685662 0.401256986018815 -0.143495597538424
-0.9298732138460917 0.3561839668480385 -0.09202601769029888
-0.9508900041393615 0.3055607227273947 -0.04940490617495941
-0.9682635914050572 0.2494840788107984 -0.01494362671197746
-0.9818574436775943 0.1892847388644587 0.01128042232865789
-0.9913912672256252 0.127567430962105 0.02949416597391434
-0.9970131026287437 0.06555960780702336 0.04082659685542032
-0.9989253651585349 0.003561934250351381 0.04621068563961324
-0.9972324331116519 -0.05834311135979133 0.04608205406742175
-0.991940539400015 -0.1200746526417277 0.04044804182868509
-0.9829558163172427 -0.1815582552524393 0.02888707527238189
-0.9700902885599952 -0.2425183749542218 0.01047233742522912
-0.9532401891193931 -0.3017926470402061 -0.01594804188885611
-0.9327714506218847 -0.3568906655804325 -0.05066037629449733
-0.9088072962601782 -0.4065961351444379 -0.09353545397265164
-0.8806634577231304 -0.4509571808339679 -0.1451533509272848
-0.8468988938755332 -0.48979031524103 -0.2070451898704485
-0.8069586205018427 -0.5203952404357624 -0.2792965780842424
-0.7534785651940631 -0.5479320578599548 -0.3633737906927939
-0.6683903592029177 -0.5834078684657626 -0.4613995955100409
-0.6129843000953852 -0.5500200894360634 -0.5672108506131696
0 0 0
0 0 0
0 0 0
0 0 0
0 0 0
0 0 0
0 0 0
0 0 0
0 0 0
0 0 0
0 0 0
0 0 0
0 0 0
-0.6354538425562504 0.5441512964052793 -0.5478118113010612
-0.6985842237236951 0.567589587756468 -0.4356858297383611
-0.7499317516455762 0.5726392892721253 -0.3311896922546238
-0.8016711159159964 0.549440831659712 -0.2354531681907991
-0.8422569902142951 0.5162935398235344 -0.1550617398704157
-0.8745846920764214 0.4767998956833924 -0.0881105888182379
-0.9016831059517413 0.4311929439760849 -0.03225246512217571
-0.9246929099077629 0.3804612538286046 0.0138656662832742
-0.9442657807572641 0.3251113696516667 0.05162104816924358
-0.9606226889715189 0.2655223107811491 0.08186545004192229
-0.9736293288474207 0.2025508922784999 0.104971739269691
-0.9830346466811546 0.137547648535549 0.1213405447770775
-0.9887071707261906 0.07155688682403313 0.1316728616787184
-0.9906111439792078 0.005192652183696933 0.1366111188282401
-0.9887500477138962 -0.06115633405020897 0.1365036481245333
-0.9831466783100592 -0.1271588105509841 0.1313516114372229
-0.9738455117823831 -0.1924320838091214 0.1208089909824063
-0.9609382059312653 -0.2563844849248573 0.1042341607699507
-0.9446218149728824 -0.3180269995418003 0.08092251997915444
-0.9252023581242629 -0.3761025302506312 0.05047259910461795
-0.9028027699369019 -0.4298717979823599 0.01254575201691199
-0.8771126900848945 -0.4791036836284031 -0.03365990531380432
-0.8473293123395497 -0.5234720959866584 -0.08949860989713598
-0.8121146130476177 -0.5621671505751472 -0.1563264215951261
-0.7681294422111394 -0.5950780964399093 -0.2363455502984084
-0.7122528619836417 -0.6187610333043082 -0.3314070673058973
-0.6566408220927927 -0.6151892187132049 -0.4363084412893442
-0.5894870508849711 -0.5929014468524402 -0.5486099626868086
0 0 0
0 0 0
0 0 0
0 0 0
0 0 0
0 0 0
0 0 0
0 0 0
0 0 0
0 0 0
0 0 0
-0.5930181535919425 0.5896623100922754 -0.5482953853234985
-0.6615877889946462 0.6171399208074489 -0.4259576453110691
-0.7149054211851644 0.6250280920320034 -0.3134487564672977
-0.7589038213931142 0.6154116487154555 -0.2129166327468398
-0.798476917634783 0.588943323707132 -0.1248213662208983
-0.8324199215563796 0.5518032977838974 -0.0508939559366913
-0.8615429339369312 0.5075812072242535 0.01025139288650325
-0.886994208234392 0.4577699743274457 0.060728289642412
-0.9093823991293877 0.4032019778249791 0.1022341294857228
-0.9289257996494564 0.3443427683824298 0.1361062695409048
-0.9455524046994129 0.2815829260748896 0.1632228712842052
-0.9589849549073529 0.2155431430609576 0.1840896785285509
-0.9688718397659581 0.1471169006778373 0.19910794972445
-0.9749200666114526 0.07720222542224492 0.2087359099632187
-0.9769458927074456 0.006558261120837137 0.2133862974352441
-0.9748780537627625 -0.06417188427071344 0.2132949825028098
-0.9687543181793578 -0.134385242292493 0.2084602543959754
-0.9587235653848672 -0.2034440278391265 0.1986445385917269
-0.9450510052528237 -0.2706091426114322 0.1834374264040261
-0.9281084144127953 -0.3350299668026345 0.1623874762424485
-0.9083036282291392 -0.3958924171325708 0.1351063026017347
-0.8859206241004532 -0.4526821055845802 0.1011116169239397
-0.8609788992994296 -0.5051425595653836 0.0595510661271066
-0.8331487973166657 -0.5529740007795215 0.00910142800239503
-0.8016473523200172 -0.5955373457054787 -0.05193064979738575
-0.7650791544039075 -0.6315592052517214 -0.1256457629942807
-0.7223893521318578 -0.6577053353848286 -0.2134884440264718
-0.6747026665420477 -0.6679819751037477 -0.3139687766284189
-0.6170103449382662 -0.6614856845190388 -0.4263037924010764
-0.5440006234186803 -0.6353018501418611 -0.5481376477915146
0 0 0
0 0 0
0 0 0
0 0 0
0 0 0
0 0 0
0 0 0
0 0 0
0 0 0
-0.5501022329799198 0.6131848940170285 -0.5669142960093976
-0.6152585625987331 0.6567956188437949 -0.4359775409542751
-0.6680382501416849 0.6748115525657828 -0.3136148352221123
-0.7114610137819676 0.6721764712790712 -0.2049439370343761
-0.748568695767994 0.6537298299597648 -0.110825164727966
-0.7818655379439428 0.6227011472614342 -0.03048871553414387
-0.8120011094764664 0.5824983845282328 0.03674003580545321
-0.8394356889076978 0.5355369411346299 0.09245490180743265
-0.8645239650427355 0.4831223404189756 0.1385320109392686
-0.887362315038884 0.4259249089402807 0.1765675332359979
-0.907803600461355 0.3643181016091444 0.207761747752826
-0.9255106787684257 0.2986391868106879 0.2329047435898595
-0.9400214839283775 0.2293916564626637 0.2524659931523568
-0.9508386531321592 0.1573048379076215 0.2667602738052982
-0.9575277962616953 0.08324034254458194 0.2760644213934158
-0.9597874285189223 0.008091461813730105 0.2806111549863102
-0.9574848250758564 -0.06725708034647288 0.2805339460612997
-0.9506703441318701 -0.1419281229834986 0.2758302099019824
-0.9395780615996313 -0.2150426534840695 0.266363892716729
-0.9246100618347074 -0.2857265196864278 0.2519059139875429
-0.9062923441589253 -0.3531602688038182 0.2321896023885093
-0.8851897693123387 -0.4166836310904506 0.2069150160960904
-0.8617921598521366 -0.4758869005896485 0.1756300972628747
-0.8364163810084769 -0.5305513880678824 0.1375603947360017
-0.809136012849808 -0.5804515952622747 0.09151425171521037
-0.7797187117181149 -0.6251001755870558 0.03589569720279312
-0.7476008588890847 -0.6634159642965618 -0.03118034805394309
-0.712050410750831 -0.693243988954507 -0.1113417456662848
-0.6721116679032235 -0.711415984339646 -0.2053124523607825
-0.6249448821932566 -0.7148171283206285 -0.3138158174469639
-0.5674864903685124 -0.6984463469935385 -0.4360410343311849
-0.4976646264352074 -0.6564151908140599 -0.5669647404060029
0 0 0
0 0 0
0 0 0
0 0 0
0 0 0
0 0 0
0 0 0
0 0 0
-0.5834433955338998 0.6685729481691414 -0.4610900315386308
-0.618787132656261 0.712386601917615 -0.3310707082593012
-0.6577213397518851 0.7224789686375956 -0.2131355885612276
-0.69325207512639 0.712099255082858 -0.110978426927903
-0.7254287595430424 0.6878736845993193 -0.02414350561948935
-0.7553705472809082 0.653457407087997 0.0490790527860132
-0.7837073372992763 0.6112366860189118 0.1104197587748479
-0.8106800758140986 0.5627261578564444 0.1616696815799747
-0.8362692333092961 0.5087533878800535 0.2045085810934333
-0.8602354413615402 0.4497221591559581 0.2403018206123674
-0.8821537576011198 0.3858579017522817 0.2700341230392017
-0.901455260967482 0.3174132375682028 0.2943250738393183
-0.9174820761835721 0.2448232795960891 0.3135094921205678
-0.9295647275733385 0.1687741114004642 0.3277570999574044
-0.9371146372306208 0.09017624069012578 0.3371711765603902
-0.9397091300422431 0.01009457455915574 0.3418257604097726
-0.9371520792922264 -0.07032093763477062 0.3417615338337868
-0.9295046592186768 -0.1498947003239634 0.3369757666443689
-0.917084618338087 -0.227483205905598 0.3274250965313993
-0.9004320184998155 -0.3020405688811353 0.3130394141482946
-0.8802404737697324 -0.3726952633673272 0.2937259760409265
-0.8572606398236994 -0.4388233595771503 0.2693292678089103
-0.8321970254713522 -0.5000740082952874 0.2395289064478805
-0.8056233292823149 -0.5563007056575721 0.2037169020993726
-0.7779204055593627 -0.6074095110081721 0.1609146623250021
-0.7492236586475195 -0.6531596872911967 0.1097557844511648
-0.7193737752487048 -0.6929243931849434 0.04855055935520208
-0.6878636010072865 -0.7254258924763658 -0.02451409664164003
-0.6537070961570755 -0.7485325392303612 -0.1112028333597273
-0.6153735026709297 -0.7588279892312714 -0.2132968236278632
-0.5725839556983349 -0.7498085227335819 -0.3315641610803708
-0.5330429039636712 -0.7078113831969314 -0.4635388962652676
0 0 0
0 0 0
0 0 0
0 0 0
0 0 0
0 0 0
0 0 0
-0.4629488767839374 0.7263644036208492 -0.508008947398585
-0.5479337158911383 0.7536301663726318 -0.3630567659786658
-0.5950680431127571 0.7682401119837867 -0.2360109200971265
-0.6315409068018514 0.7651510133252062 -0.1252996801404726
-0.6633925868482529 0.7476362949516667 -0.03082606341599101
-0.6928988280852513 0.719373927546986 0.04891182273958402
-0.7212625450660468 0.6828661693437847 0.1160781454477708
-0.7490366086251175 0.6396090026251967 0.1727555576535329
-0.7763268733923668 0.590406856779185 0.2207630610336669
-0.8029292385425945 0.5356067404827501 0.2615913940534988
-0.8284072521024491 0.4753038805901337 0.2963572940894631
-0.852138580530113 0.4095290224958888 0.3258002751774239
-0.8733560675189999 0.3384156906469154 0.35031985335079
-0.8912025325975202 0.2623360809390194 0.3700511134010024
-0.9048116021924867 0.1819807442353858 0.3849661975620713
-0.9134119985647167 0.09836631531980802 0.3949716304855496
-0.9164366815733154 0.01278191581022922 0.3999755383709224
-0.9136125715517139 -0.07330490249705823 0.3999230680675477
-0.9050105882908495 -0.1583659947008435 0.3948114066283571
-0.8910439267165131 -0.2409406046133263 0.3846925339932933
-0.8724131010315885 -0.3197583608894096 0.3696619696286929
-0.8500082853635069 -0.3938395218916793 0.3498233065556438
-0.8247905416639302 -0.4625514687751692 0.3252179286503953
-0.7976789491346 -0.5256002317466195 0.2957240106846576
-0.7694631834444712 -0.5829497046389889 0.2609522009579822
-0.7407418211734068 -0.63468697638464 0.2201681093447173
-0.7118708482242638 -0.6808586742101796 0.1722537697736184
-0.6829018096445084 -0.7212879401903542 0.1157100934240863
-0.6534855975766652 -0.7553705183039948 0.04870270872366336
-0.6227192283991413 -0.7818360814789683 -0.03087238700828947
-0.5889482981339168 -0.7984124299397114 -0.1252097993087112
-0.5494296390592651 -0.8015647375710746 -0.2358411397653494
-0.4978831969175115 -0.7877774771127538 -0.3626554408540733
-0.4075912804960413 -0.7607986473210414 -0.5050294707223235
0 0 0
0 0 0
0 0 0
0 0 0
0 0 0
-0.3874686112519219 0.7243919510362515 -0.5701967875816204
-0.4620191177336497 0.7807872765459646 -0.4206061859180801
-0.5203636228253083 0.8070879596262324 -0.2789815862498536
-0.5621255470662342 0.8122063386483447 -0.1559991435711645
-0.5954895256728275 0.801704559424158 -0.05159480799913112
-0.6250495069664785 0.7797434526517422 0.03623895538922305
-0.6531090498248829 0.7492163017626919 0.1101067764030585
-0.6808103545692585 0.7118299604688219 0.1726133496871991
-0.7086254272808623 0.6684109435809661 0.2260018015685211
-0.7365846855479906 0.619217234750178 0.2720533352203388
-0.7643990384531778 0.5641746342138225 0.3120914803732327
-0.7915262146670948 0.5030623122687442 0.3470080135524307
-0.8172093198181503 0.4356770361553635 0.3772988838695837
-0.8405126971825768 0.3619888619944893 0.4031159506479541
-0.8603776830609413 0.2822821986695738 0.424343024927896
-0.8757142273167687 0.1972592790003658 0.4406964589411284
-0.8855295613690805 0.108078929823817 0.451836630730203
-0.8890752610851342 0.01631411725992708 0.4574702500758153
-0.8859783971970108 -0.07617188571915852 0.4574277249207819
-0.8763188836648373 -0.1674123787717748 0.4517059990374141
-0.8606271654075579 -0.2555501775702377 0.4404713258617082
-0.8398010396681723 -0.3390295665049012 0.4240202433938206
-0.8149663233072758 -0.4167263177114606 0.4027022075947271
-0.7873205491454093 -0.4879932470440909 0.3768142031993159
-0.7579962899835759 -0.5526205763830851 0.3464853863139985
-0.7279635286783719 -0.6107299323552089 0.3115735076021947
-0.6979682468351024 -0.6626317049211484 0.2715870947656112
-0.6684884340299477 -0.7086698614468723 0.2256329786291415
-0.6396825253482413 -0.7490601795737428 0.1723807243894986
-0.6113041947776147 -0.7837083046421658 0.1100385145401085
-0.5825573827011243 -0.811976232378421 0.03635235773590571
-0.5518508760850213 -0.83236425289459 -0.05128704580520022
-0.5163264740343053 -0.8421638957516535 -0.1554572124531356
-0.4708471113088352 -0.8372662043561492 -0.2780077351714724
-0.4070578905114312 -0.8118777345184358 -0.4185193161200512
-0.3267403894357524 -0.7566194626758044 -0.5663635816430548
0 0 0
0 0 0
0 0 0
0 0 0
-0.4141467765877062 0.7649283376586593 -0.4933224966376172
-0.4506392485452309 0.8239166181053557 -0.3436359615645935
-0.4897282903586277 0.8470098618543254 -0.2067377458132192
-0.5234025513160377 0.8474056389880955 -0.08918212986377512
-0.5529001360868366 0.8331942193917427 0.009425088187446027
-0.5803764868375626 0.8091523558113313 0.09184551492076531
-0.6073358577392125 0.7779074328251027 0.1612550211920006
-0.6346169770688385 0.7406973417865336 0.2205192515096402
-0.6625669226185491 0.6978883424977194 0.2719502426135539
-0.6911655859205914 0.6493270682686103 0.3172766793395581
-0.720093645910856 0.5945790887106592 0.35768819995467
-0.7487636963473846 0.5331080176389985 0.3938892846488953
-0.7763345048914609 0.4644372613274386 0.4261487613564048
-0.8017308848537598 0.3883165008255356 0.4543543589074707
-0.8236940501319038 0.3048917076960729 0.4780890694791848
-0.8408840790538208 0.2148535140014178 0.4967413140811317
-0.8520415127510319 0.1195211140118442 0.509646901152455
-0.8561885935562396 0.02081647506151557 0.5162439022692675
-0.8528211445181713 -0.07889671544394927 0.5162086823706787
-0.8420270998641167 -0.1770920689568971 0.509537792717076
-0.8244841300009886 -0.2714094628238376 0.4965509267599733
-0.8013349696713444 -0.3599402028314134 0.4778130562966082
-0.7739866506151732 -0.4413956932784548 0.4539983553106081
-0.7438991363478673 -0.5151372238320764 0.4257319762050736
-0.712415145265733 -0.5810908623147578 0.3934438594390499
-0.6806520557696538 -0.6395947048554295 0.357255360348084
-0.6494477275795807 -0.6912244272126012 0.3169013101366565
-0.6193357154433931 -0.7366245658330788 0.2716753956239841
-0.5905216192712888 -0.7763478722552137 0.2203819375947513
-0.5628352808180515 -0.8106810438842014 0.1612845056206152
-0.5356381604289492 -0.8394139704237917 0.09206490835088206
-0.5076719483246397 -0.8614940757818018 0.0098564840142238
-0.4768773708155779 -0.8745022246025037 -0.08850893948801655
-0.4404799605733216 -0.8738589794992925 -0.2057860254773867
-0.3968711388960748 -0.8515814376859023 -0.3424943125077307
-0.3549876053228447 -0.7942414199793923 -0.4931169910439815
0 0 0
0 0 0
0 0 0
-0.297522095195402 0.7568121871788694 -0.5819930551201392
-0.376367961336998 0.8239654484337061 -0.4235895389011309
-0.4184060114312437 0.8653477405069276 -0.2758798608049389
-0.4508684123274003 0.8807577499185498 -0.1448566902969352
-0.479009262109403 0.8771758585875044 -0.0333562576539875
-0.5050451639581705 0.8610145119092767 0.05986144538928107
-0.5304536722753731 0.8364258777651898 0.1378791230545881
-0.5562051103445167 0.8056059540805871 0.204046372122981
-0.5828583313521377 0.7694161416184322 0.2612947886782395
-0.6106443845886768 0.7278822088065416 0.3119309629921755
-0.6395158554455965 0.6805302990573812 0.3576282744674386
-0.6691614781151227 0.6266105331835995 0.3994773534384006
-0.6989963814524833 0.5652679048484915 0.4380368186174883
-0.7281426646275796 0.495708574923043 0.4733722305932336
-0.7554216927689051 0.4173910752600939 0.5050967792288759
-0.7793874396250431 0.3302468164698688 0.5324399113197995
-0.7984326668130864 0.2349013488813845 0.5543704833948576
-0.8109866804325098 0.1328324262274227 0.5697860569578672
-0.8157876870443878 0.02637985753446744 0.5777495588775718
-0.8121615165640775 -0.08145865819773586 0.5777180610098333
-0.8002023058277337 -0.1874357820311583 0.5696877191605467
-0.7807709273169703 -0.2885521865262466 0.5541970720849394
-0.7553089232351189 -0.3824735341533108 0.5321864580705534
-0.7255498096761001 -0.4677454780705488 0.5047688990256113
-0.6932343016270972 -0.543789588658286 0.4729895203008647
-0.6599021181269484 -0.6107436409206056 0.4376315797181559
-0.6267800560096145 -0.6692338056867823 0.3990900584010705
-0.5947468179087505 -0.7201469293396157 0.3573018650247119
-0.5643393513785981 -0.7644348236566056 0.3117057857446293
-0.5357668973181069 -0.8029480384061517 0.2612054351613715
-0.5089071953631339 -0.8362703186265127 0.2041210932068
-0.4832678201782631 -0.8645051140281194 0.1381416729281112
-0.4579049955339278 -0.886951407504723 0.06033420083554168
-0.4313153074612745 -0.9016102724564085 -0.0326499946503286
-0.4013646598837279 -0.9045446265873301 -0.1438938091385662
-0.3652260108058382 -0.8894878209819101 -0.2746295274651043
-0.3175577839135957 -0.8492599935641213 -0.4217991432036742
-0.2323960567144652 -0.7829086571165551 -0.5771014706579067
0 0 0
0 0 0
-0.3258350390605105 0.7870417665827948 -0.5238289653834243
-0.354028330913585 0.8611178651268051 -0.3648834927343164
-0.3816139278340191 0.8979314892199207 -0.2192939824764619
-0.4064838378476257 0.9088866823967285 -0.09325174599187196
-0.4297550737616931 0.902854268658238 0.01283534735327573
-0.4525630754890574 0.8859475566367888 0.1014080351510121
-0.4757677698514934 0.8617955713833089 0.1759358471564335
-0.4999569317414422 0.8321757294984969 0.2398470796931381
-0.5254871942641741 0.7976296901483405 0.2960575722021444
-0.5525132272335112 0.757913915671995 0.3468366044159031
-0.5809902619051204 0.7122928028961574 0.3938137612041443
-0.6106499080844546 0.6597315498111039 0.4380193739325758
-0.6409549535681851 0.5990500075952524 0.4799123210509741
-0.6710440290612202 0.529090370326232 0.519387419071096
-0.6996870805928681 0.4489377057359011 0.5557813649448982
-0.7252871651058859 0.358207868323449 0.5879163641231953
-0.7459757187323289 0.2573743435976389 0.6142301476803862
-0.7598412496898849 0.1480447497201906 0.6330276671283804
-0.7652864965015098 0.03304364797845931 0.6428411122514796
-0.7614253612456542 -0.08383425487131112 0.6428088650307308
-0.7483548618788542 -0.1984149809256286 0.6329269278886486
-0.7271558684034467 -0.3068935688857915 0.6140526690952255
-0.6996185008459852 -0.4064382176909074 0.5876580029866469
-0.6678337340748581 -0.4954533138559573 0.5554494733283857
-0.6338195305301487 -0.5735051335773956 0.5190035303145003
-0.5992779505015405 -0.6410430853937037 0.4795098546553485
-0.56549312802341 -0.6990637876575683 0.4376383700547208
-0.5333295262123416 -0.748813211702875 0.3934950958390004
-0.50327878018734 -0.7915597179619054 0.346617487027431
-0.4755137981859711 -0.8284255231130053 0.2959692220310997
-0.4499239272042138 -0.8602380154039257 0.2399146026882312
-0.4261168904143045 -0.8873472831658298 0.1761794391007755
-0.4033825381998719 -0.909346132399429 0.1018437006673886
-0.3806288285386105 -0.9246297580759656 0.01347239272385255
-0.3563372392225521 -0.9297753524993537 -0.09242059201255658
-0.3286666151908423 -0.9188662752877936 -0.2183186299831757
-0.2961397604567383 -0.8830914021714453 -0.3639379310919587
-0.2619422895998048 -0.8106543407618263 -0.5236657108530401
0 0 0
0 0 0
-0.3070879730789132 0.827514544698461 -0.4700177178604895
-0.319832674817516 0.8944809481039339 -0.312427421328794
-0.3378285256072302 0.9255174842597168 -0.1711410927147811
-0.3567578203211508 0.9328368722128479 -0.05039074795884114
-0.3759657652867051 0.9252429067349227 0.0507474814063984
-0.3957533293742567 0.908322251344183 0.1353882934460179
-0.4165439889518089 0.8851871221112516 0.2072072974499562
-0.438685009738229 0.857235188875477 0.2696354820578974
-0.4624162385070785 0.824738696976774 0.3255415550648135
-0.4878627868284205 0.787236766688564 0.377158023117289
-0.5150127603524776 0.7437760180736877 0.4260975142060443
-0.543671560558131 0.6930627877753969 0.4733763898223916
-0.5733927104765563 0.633589323452149 0.5194086722223605
-0.6033913248678117 0.5637928179065006 0.5639650410719743
-0.6324589148159925 0.4823002754199424 0.6061205865169275
-0.6589198578377106 0.388292642874857 0.6442464159282451
-0.6806946459375686 0.2819700502907561 0.6761269775204624
-0.695541712684295 0.1650051819673598 0.6992817857202598
-0.7015017411095555 0.0407605017604156 0.7115011515918301
-0.6974428655688952 -0.08598635130474415 0.711463137946264
-0.6834595838476297 -0.2098867718942955 0.6991641725879666
-0.6608782660749265 -0.3261406718019409 0.6759232054208354
-0.6318616268782101 -0.4313607294151299 0.6439555928767666
-0.5988499116665592 -0.5238708388367512 0.6057541807643031
-0.5640924123148464 -0.6035008044428594 0.5635481606798465
-0.5293848669703266 -0.6711296841827298 0.5189765020033164
-0.4959971960191696 -0.7282085397548707 0.4729683965860718
-0.4647188621785958 -0.7763837051995095 0.4257519482469949
-0.4359503040119105 -0.8172438734883655 0.3769081899848486
-0.4097926101235276 -0.8521593768461626 0.3254142177921942
-0.3861105040339223 -0.8821604725552686 0.2696508470888508
-0.3645585002461464 -0.9077945509289457 0.2073792496900155
-0.3445698623028147 -0.9288977075969701 0.1357227276977318
-0.3253242266720714 -0.9442134729401725 0.05123538873157739
-0.3057587078444102 -0.9508061657250785 -0.0497920455142252
-0.2848362159006301 -0.9432805935925264 -0.1705580600943278
-0.2627166242448741 -0.9129601072032548 -0.3122239869081149
-0.244569528851597 -0.8473845616366351 -0.4713015491775885
0 0 0
0 0 0
-0.257868434253141 0.868238742356304 -0.4238695045498983
-0.2703748772683225 0.9247094522164206 -0.2679736082597428
-0.2858001977723887 0.9492327191833166 -0.1314362651063618
-0.3016419954439108 0.9532921064106142 -0.01569287863423908
-0.3178722768483022 0.9446515923409989 0.08118241619273728
-0.3348723131095381 0.928118517393798 0.1626547004651424
-0.3530010235391819 0.9062830555878078 0.2324678483892247
-0.3725359284036156 0.8802099880256378 0.2940193174408138
-0.3936816927726429 0.8499527890588163 0.3501356610612593
-0.4165715544929308 0.8148800173224551 0.4030368436705232
-0.4412452987995227 0.7738617502646737 0.4543573238813421
-0.4676001595128953 0.7253766156342469 0.5051523100160191
-0.4953127040380984 0.6676009388304368 0.5558545778269581
-0.5237328968693239 0.5985453698174465 0.6061743090951326
-0.5517635869098447 0.5163101544762101 0.6549662346603324
-0.5777651733767555 0.4195221012127463 0.7001347092002863
-0.599564644281826 0.3079627144122808 0.7387023784035264
-0.614678242305937 0.1832636070572622 0.7671930062012065
-0.6208214976553896 0.04934570023583276 0.7823973861901339
-0.6166149141909167 -0.08784300588371569 0.782348805785911
-0.6021428830785682 -0.2215080197430591 0.7670450739997863
-0.5789674888741227 -0.3456646680135124 0.7384528313398899
-0.5495839566045498 -0.4563471058703582 0.6997891065218406
-0.5166979148332812 -0.5519032044111767 0.6545426783393222
-0.4826789131931513 -0.632570462925375 0.605702630168513
-0.4493066546090508 -0.6997756194220484 0.5553715986495087
-0.4177493998013839 -0.7554914511940602 0.5046960532224077
-0.3886631106485449 -0.8017850013899778 0.4539623310001277
-0.3623226631007653 -0.8405531716220489 0.4027314905488311
-0.3387356748495702 -0.8733837760261445 0.3499413127347484
-0.3177185338377054 -0.9014699387822624 0.2939504766587772
-0.2989290881502502 -0.9255108235383469 0.2325319672024259
-0.2818569123848205 -0.945535080569382 0.1628499074410155
-0.2657800792250652 -0.9605832549779709 0.08149085680641549
-0.2497256178925481 -0.9681954427259716 -0.01531993645039795
-0.2325684393180626 -0.9637020276015064 -0.1311118721928163
-0.2137379582876809 -0.9394201395825634 -0.2679662040886683
-0.1962910751284401 -0.8836926708342494 -0.4249200834730587
0 0 0
-0.08985992928271526 0.8272153379776269 -0.5546530246233812
-0.1764618155564086 0.9047593803416291 -0.3876489279417223
-0.2091169848346024 0.9494087299319659 -0.234292872667214
-0.2276892884896665 0.9684443776342602 -0.1013561805498785
-0.2423523021367776 0.9701291626850508 0.0107130461123559
-0.2562137845446225 0.9609571407905338 0.1044790417883092
-0.2704345009273802 0.9450520080387674 0.1836896371874353
-0.2855488217367739 0.9245931032840951 0.2521695139469206
-0.3018609093027713 0.9003950960865891 0.3133187871451784