# OOMMF: rectangular mesh v1.0
# Segment count: 1
# Begin: Segment
# Begin: Header
# Title: 
# Desc: time = 6.6e-10
# Desc: stepsize = 7.75211254102211e-14
# Desc: step = 4222
# meshunit: m
# valueunit: (none)
# valuemultiplier: 384000.0000000001
# xmin: 0
# ymin: 0
# zmin: 0
# xmax: 9.357999999999999e-08
# ymax: 9.357999999999999e-08
# zmax: 2.3395e-08
# ValueRangeMaxMag: 1
# ValueRangeMinMag: 0
# meshtype: rectangular
# xbase: 1.16975e-09
# ybase: 1.16975e-09
# zbase: 1.16975e-09
# xstepsize: 2.3395e-09
# ystepsize: 2.3395e-09
# zstepsize: 2.3395e-09
# xnodes: 40
# ynodes: 40
# znodes: 10
# End: Header
# Begin: Data Text
0 0 0
0 0 0
0 0 0
0 0 0
0 0 0
0 0 0
0 0 0
0 0 0
0 0 0
0 0 0
0 0 0
0 0 0
0 0 0
0 0 0
0 0 0
0 0 0
-0.8373496101557705 0.02188781503619259 -0.5462293967967307
-0.8469258298060954 0.04033800438189308 -0.5301787285526857
-0.8570961803247971 0.021083333046779 -0.5147248106904123
-0.8622422115350207 -0.0138249548920069 -0.506307455277354
-0.8606103425828099 -0.05320867574884084 -0.5064767270710004
-0.8523019051572943 -0.08843298178903929 -0.5155201937821108
-0.8393396603941389 -0.1082143873656927 -0.5327274921162963
-0.8278998067578659 -0.08985901688802198 -0.5536309845503643
0 0 0
0 0 0
0 0 0
0 0 0
0 0 0
0 0 0
0 0 0
0 0 0
0 0 0
0 0 0
0 0 0
0 0 0
0 0 0
0 0 0
0 0 0
0 0 0
0 0 0
0 0 0
0 0 0
0 0 0
0 0 0
0 0 0
0 0 0
0 0 0
0 0 0
0 0 0
0 0 0
0 0 0
-0.7833664833431236 0.2331296775470531 -0.5761835698988942
-0.811116248583843 0.2625649833145499 -0.5226375998914572
-0.8478464348381352 0.245112752895291 -0.4701873682909347
-0.8841551684689279 0.1967796397633136 -0.423730352281143
-0.9158332936920597 0.1148694581371994 -0.3847783592568832
-0.9287488574724945 0.07405233643679217 -0.3632379539802905
-0.936694338861535 0.03497092901879491 -0.3483974019253208
-0.9401601216432471 -0.007986334662311405 -0.3406393461278597
-0.9386418477858901 -0.05272769617125288 -0.3408390700045422
-0.9321778312861619 -0.0958709832426155 -0.3490748421624241
-0.9213001821732407 -0.1352823313537432 -0.3645609210420787
-0.9052571991224684 -0.1763784691857354 -0.3865230123092795
-0.8688061223213362 -0.2578214928305678 -0.4227339584793018
-0.8281510155869576 -0.3071122627976968 -0.4688794657708614
-0.7877378977677463 -0.3259647648374423 -0.5227006566907313
-0.7575464143460304 -0.2977981711735407 -0.5808955838678466
0 0 0
0 0 0
0 0 0
0 0 0
0 0 0
0 0 0
0 0 0
0 0 0
0 0 0
0 0 0
0 0 0
0 0 0
0 0 0
0 0 0
0 0 0
0 0 0
0 0 0
0 0 0
0 0 0
0 0 0
0 0 0
0 0 0
-0.7568821881623244 0.3275256298431873 -0.5655584099263616
-0.7945027834360311 0.3556812586463594 -0.4921952553206295
-0.8495187250322406 0.3182043327294174 -0.4207896605809388
-0.8833472423657661 0.2967154606224108 -0.3628465031282876
-0.9132108837883659 0.263226544282965 -0.3110589463675961
-0.9396676694094428 0.2141922646150056 -0.2667327217379241
-0.9604997448620344 0.1529217204245 -0.2324977151336703
-0.9724889806356899 0.09931428272055456 -0.2107174786054969
-0.979205078249774 0.04856638935319495 -0.1969739083103324
-0.9817502408202443 -0.002338826511288743 -0.1901604442042084
-0.9802607202136721 -0.05361068548138736 -0.190301904374045
-0.9747340449991351 -0.1045413636593289 -0.1973946422876553
-0.9649845904424211 -0.1553394059018572 -0.2113632162480741
-0.9497227667357756 -0.208998145270527 -0.2331232326843947
-0.9250748566723884 -0.2703098790054616 -0.2667753340633499
-0.8949041963340117 -0.3198371630419916 -0.3112084004666749
-0.8615986570569254 -0.3541223053123871 -0.3636552585044555
-0.8245014597298645 -0.3765662267779533 -0.4223685828201917
-0.7655357206737928 -0.4144378555509699 -0.4921344574999492
-0.72504382885967 -0.3879079549272451 -0.5690684183265413
0 0 0
0 0 0
0 0 0
0 0 0
0 0 0
0 0 0
0 0 0
0 0 0
0 0 0
0 0 0
0 0 0
0 0 0
0 0 0
0 0 0
0 0 0
0 0 0
0 0 0
0 0 0
0 0 0
-0.7608980369166076 0.4083538828090371 -0.5042631097068625
-0.8119720210600244 0.4077608584543783 -0.4176511933758204
-0.8516673230493527 0.3975105392773578 -0.3415379071397096
-0.8895655004556464 0.365811862285276 -0.2735962386628752
-0.9189383885300583 0.3291957828243278 -0.2172150424267548
-0.9433482385533301 0.2853096062730691 -0.1693886932077667
-0.963767513627476 0.2329884565498519 -0.129879015975753
-0.9795968354733116 0.1744515545099924 -0.09978324037492595
-0.9900499193731155 0.1161179705261526 -0.07948442658895052
-0.9960297261335737 0.058714122277941 -0.06691364960461012
-0.9981447757128854 0.001615709499101043 -0.06086375111581047
-0.9966003848792668 -0.05542876677868361 -0.06095346316568778
-0.9913901231487962 -0.1124007029813961 -0.06716923173821679
-0.9822790538975884 -0.1695604946092595 -0.07985674011579359
-0.9685990135590553 -0.2275526664189949 -0.1001785153514956
-0.9494247790264587 -0.2857185334215777 -0.1302209991897694
-0.9257534897965756 -0.3378111466605641 -0.1698943946142297
-0.898215371761709 -0.3816730313165683 -0.218024868069209
-0.8656836074817335 -0.4185523132519555 -0.274601261484444
-0.8243132084651587 -0.4508806347183715 -0.3423658680210884
-0.7812422064469238 -0.4623763499280435 -0.4193670538957019
-0.7268792366634496 -0.4634298522753248 -0.5068326620568474
0 0 0
0 0 0
0 0 0
0 0 0
0 0 0
0 0 0
0 0 0
0 0 0
0 0 0
0 0 0
0 0 0
0 0 0
0 0 0
0 0 0
0 0 0
0 0 0
-0.6563951553154965 0.498417270215033 -0.5663264295702075
-0.7077813972364966 0.5337263620348501 -0.4627976492971804
-0.7877293319978675 0.4985481976868089 -0.361845538998931
-0.8372059599015785 0.4714744917477191 -0.2771244924875925
-0.8737891553892166 0.4410627393029371 -0.2048320578493225
-0.9044676650062806 0.401902549493561 -0.142872613431202
-0.9296943443428553 0.3568282562549464 -0.09133466830816191
-0.9507232570413653 0.3062011669641984 -0.04864292209993645
-0.9681126658683308 0.2501176206372595 -0.01410822568819672
-0.9817265675614685 0.1899060222606326 0.01219217999870944
-0.9912838742151167 0.1281678723410307 0.03048404862614518
-0.9969311476084367 0.06612975145457993 0.04189442565163509
-0.9988697583132784 0.004092986481911377 0.04735454982186056
-0.9972036828562831 -0.05785881387807486 0.0472987584877983
-0.9919393849388687 -0.1196435209828377 0.04173349367028283
-0.982984015812993 -0.1811854510152175 0.03023668296246737
-0.9701515257079014 -0.2422082739509099 0.01188146440264296
-0.9533402080358365 -0.3015504346934954 -0.01448389030444831
-0.9329159615522262 -0.3567246107568377 -0.0491463199178446
-0.9090017757027302 -0.4065165324165213 -0.09197869667118692
-0.8809149285591474 -0.4509747458546081 -0.1435641572364177
-0.8472175045360235 -0.4899161948116276 -0.2054376354737555
-0.8073536161856052 -0.5206427488269076 -0.2776891544983119
-0.7539668871777788 -0.5483071861873241 -0.3617916010838129
-0.669009085185574 -0.5839008714403855 -0.4598767403014847
-0.6136791975182544 -0.5507113520676846 -0.5657869291854781
0 0 0
0 0 0
0 0 0
0 0 0
0 0 0
0 0 0
0 0 0
0 0 0
0 0 0
0 0 0
0 0 0
0 0 0
0 0 0
-0.6351671276069405 0.544731491566834 -0.5475676415776597
-0.6983020426941888 0.5681702272618826 -0.4353812697192007
-0.7496479725000166 0.5732200901643211 -0.3308272140538343
-0.8013861431875429 0.5500334164715253 -0.2350393377110654
-0.8419721080143326 0.5168986547647804 -0.1545922055870247
-0.8743018752275661 0.4774158073379114 -0.08758069352003688
-0.9014051499248317 0.4318176933530005 -0.03165810159003411
-0.9244230633677438 0.3810917503314534 0.01452851482790161
-0.9440073874760172 0.3257435684518842 0.05235627949861187
-0.9603791934000937 0.2661509921726294 0.08267680599605687
-0.9734040799815281 0.2031690380022789 0.1058623590920913
-0.9828302664634114 0.1381463685764801 0.1223120933211032
-0.9885250782453826 0.07212660025439931 0.1327249909237191
-0.9904516612379215 0.005724266288353641 0.1377415678961897
-0.9886128600942212 -0.0606707168708908 0.1377086670137185
-0.9830314520695174 -0.126725614822632 0.1326264784646012
-0.9737525862844637 -0.1920563176969283 0.1221485633849773
-0.9608691948471646 -0.2560702657782976 0.1056333724634063
-0.9445797441770696 -0.3177785516217239 0.08237656838919895
-0.9251911737090694 -0.37592516819424 0.05197653325266969
-0.9028275030277698 -0.429771874705484 0.01409381030009499
-0.8771804363491231 -0.4790883966055299 -0.03207476148475082
-0.8474500902347291 -0.5235499433037792 -0.08788516045248003
-0.8123010521905887 -0.5623487312350969 -0.154696170244576
-0.7683988036950142 -0.5953758039530181 -0.2347145725074767
-0.7126239388932791 -0.619192633352988 -0.3297993397774163
-0.6571046147007619 -0.6157906185520576 -0.4347590590686257
-0.5900368621512896 -0.5936875388427256 -0.5471668918397077
0 0 0
0 0 0
0 0 0
0 0 0
0 0 0
0 0 0
0 0 0
0 0 0
0 0 0
0 0 0
0 0 0
-0.5926675749897135 0.5901863003342704 -0.5481106425290044
-0.6612424897603915 0.6176712225748001 -0.4257236551313888
-0.7145585852266306 0.6255668575856023 -0.3131647090101154
-0.7585523913649483 0.615960069101824 -0.212582837563605
-0.7981209818580793 0.5895067660903403 -0.1244374182133467
-0.832061241801029 0.5523842091752962 -0.05045567704739819
-0.8611841950541126 0.5081793285953867 0.01074951986562229
-0.8866386779118655 0.4583831897889057 0.06129197459412197
-0.9090336402656378 0.403826487244048 0.1028688926038121
-0.9285873808097845 0.3449732368550058 0.1368171847927126
-0.9452277089431866 0.2822124849086902 0.1640143030582265
-0.9586769227732117 0.2161633110155946 0.1849648093904899
-0.9685825545745473 0.1477178856943495 0.2000681414414461
-0.9746504292470777 0.07777380511740634 0.2097803041423248
-0.9766956413333238 0.007090811582942023 0.2145118751761358
-0.9746461206333612 -0.0636866251562387 0.2144969773925674
-0.9685393958553327 -0.1339537735995359 0.2097327471203074
-0.9585247430518734 -0.2030711030950084 0.1999811092206361
-0.944868312951981 -0.2702981696279169 0.1848317361144306
-0.9279431115252685 -0.3347837113526274 0.1638335996850551
-0.9081582895510919 -0.3957136714303046 0.1365987238695275
-0.8857994546312002 -0.4525740996868196 0.102645070352805
-0.860888361722525 -0.5051094185610494 0.0611204051984668
-0.8330981641357343 -0.5530216364549003 0.01070133292689117
-0.8016488423424216 -0.5956747329824208 -0.05030652102238962
-0.765147844955421 -0.6317999227489444 -0.1240065843997905
-0.7225400891294864 -0.6580695661974503 -0.2118496297977709
-0.6749417530806021 -0.6684961978973565 -0.3123563083167379
-0.6173415758869558 -0.6621716330146202 -0.4247565268623429
-0.5444215990658628 -0.6361729797343024 -0.5467074741820773
0 0 0
0 0 0
0 0 0
0 0 0
0 0 0
0 0 0
0 0 0
0 0 0
0 0 0
-0.5496975028151562 0.6136571186290473 -0.5667959034385094
-0.6148608060576989 0.6572769220019737 -0.4358133051866216
-0.6676393033491481 0.6753034116965836 -0.3134055882948134
-0.7110565211509174 0.6726817279562473 -0.2046898058100392
-0.7481568345276649 0.6542519634742104 -0.1105247449202385
-0.7814465169409017 0.6232439298870397 -0.03013876274652138
-0.811576663935788 0.5830639508318017 0.03714495652530388
-0.8390086172127003 0.5361251217261424 0.09292144045892127
-0.8640977440794674 0.4837307272270837 0.1390671500144133
-0.8869407623264922 0.426548986826233 0.1771780064263465
-0.9073905325866929 0.3649514005998994 0.208453583735585
-0.9251095955767392 0.2992734113886563 0.2336828222348346
-0.939635223565512 0.2300169109110135 0.2533335100809691
-0.9504690216857551 0.15791013588491 0.2677181872800808
-0.9571753014756783 0.08381449942513794 0.2771111183822422
-0.9594512917784862 0.008624102110864482 0.2817425128861015
-0.9571633066700986 -0.06677466612734673 0.2817437636008004
-0.9503613013480242 -0.1415024932219672 0.2771108827023152
-0.9392795956697398 -0.2146781364277895 0.2677071887312341
-0.9243210980964289 -0.2854255500395794 0.2533036971668886
-0.9060130487353252 -0.352923976529428 0.2336343774190272
-0.8849218328021515 -0.4165125342677233 0.2084002366312452
-0.8615391185771121 -0.4757815759495558 0.1771503292357338
-0.836183994511607 -0.530513293263621 0.1391113690292763
-0.8089325544724683 -0.5804841727232131 0.09309268248629043
-0.7795549794396889 -0.6252102791242936 0.03749854541323159
-0.7474897497707436 -0.6636154215252805 -0.02955750837765208
-0.7120052796781171 -0.693550795233859 -0.1097076849676795
-0.6721436544190381 -0.7118536757453867 -0.2036841971091562
-0.6250630646708752 -0.7154114342135045 -0.3122221084113507
-0.5676941752748551 -0.6992217794288857 -0.4345252887132163
-0.4979519433820834 -0.6573879161609116 -0.5655837601696321
0 0 0
0 0 0
0 0 0
0 0 0
0 0 0
0 0 0
0 0 0
0 0 0
-0.5830051676581155 0.6690121648028972 -0.4610072644001102
-0.6183464662081312 0.7128317698316398 -0.3309358180170412
-0.657274123757474 0.7229381967331925 -0.2129579534626587
-0.6927954942636934 0.712577692098227 -0.1107584572476923
-0.72496155363961 0.6883753141387476 -0.0238782878117862
-0.7548929508137822 0.6539853316426506 0.04939452204356667
-0.7832209546208698 0.6117924715019497 0.1107921840939536
-0.8101876498542925 0.5633092824772853 0.1621068298946824
-0.8357743404420653 0.509361005652501 0.2050185791076096
-0.8597421283614173 0.4503490572409362 0.240892505825274
-0.881666140580417 0.3864965646640227 0.2707124342488551
-0.9009770943792953 0.3180540418773297 0.2950964280524845
-0.917016312414046 0.2454548748243766 0.3143771416491561
-0.9291131035626241 0.1693841230513574 0.3287215533644705
-0.936677413414555 0.09075226807527649 0.3382298760284362
-0.9392851083156039 0.01062532706107989 0.3429731588935038
-0.9367389519751007 -0.06984467141624683 0.3429895883658073
-0.9290996157671326 -0.1494794378937915 0.3382747428176129
-0.9166850588388462 -0.2271326527181076 0.3287845205767085
-0.9000362108190048 -0.3017559329844785 0.3144490040105617
-0.8798480454116604 -0.3724759139725178 0.2951764057231161
-0.8568729092663592 -0.4386676317734707 0.2708127142503836
-0.831817232962369 -0.4999801068970425 0.2410393819566612
-0.8052568059222529 -0.5562676987282883 0.2052503930993183
-0.7775746256588016 -0.6074385056103367 0.1624689614463475
-0.748908128824546 -0.6532551417044037 0.1113298451327223
-0.7190996771625696 -0.6930954647374963 0.05014310585714979
-0.6876430534592095 -0.7256874703988768 -0.02290690584460327
-0.6535521203879296 -0.7489055445367662 -0.1095906533356301
-0.6152949165970911 -0.759338982525077 -0.2116990203745841
-0.5725868944954106 -0.7504893609091974 -0.3300151017971833
-0.5331139036537276 -0.7087006330713712 -0.4620962869525364
0 0 0
0 0 0
0 0 0
0 0 0
0 0 0
0 0 0
0 0 0
-0.4624595809896751 0.7267206364206504 -0.5079451275002236
-0.5474543004750559 0.7540149187090207 -0.3629811169408063
-0.5945851114992238 0.7686469207697735 -0.235903489534598
-0.6310482988282944 0.7655809047159883 -0.1251555946818353
-0.6628869853298304 0.7480922002816692 -0.03064154953750712
-0.6923787022760157 0.7198588919529416 0.04914171660476091
-0.7207278724634497 0.6833825529643285 0.1163598734885241
-0.7484887585992538 0.640157806782284 0.1730969689689659
-0.7757684619722858 0.5909871391013052 0.2211729975064948
-0.8023638771020081 0.5362152129494301 0.2620790989824077
-0.8278391954694521 0.475934676310338 0.2969317267148516
-0.8515722723283377 0.410173655788109 0.3264693509335426
-0.872795618888211 0.33906323308646 0.3510896347352069
-0.890651167518395 0.2629736601191474 0.3709249949540454
-0.9042711652366291 0.1825944063389358 0.3859442220001745
-0.912882652220695 0.09894224057094696 0.396050118426077
-0.9159169360897084 0.01330775258149762 0.4011471923188171
-0.9130996931336323 -0.072838853134815 0.4011775814689434
-0.9045013090643725 -0.1579660578038013 0.3961364745674926
-0.8905352726034254 -0.2406095795622365 0.3860750684413924
-0.8719031345129874 -0.3194959503817236 0.3710892907591187
-0.8494966338557594 -0.3936431409157784 0.3512841395191278
-0.8242786804423502 -0.4624172778246098 0.3267031039606065
-0.7971702983623592 -0.525524215017538 0.297226874355377
-0.7689630676226498 -0.582928785536981 0.2624687250411818
-0.7402573388829471 -0.6347201337328837 0.2216966938500594
-0.7114106634736711 -0.680948086622842 0.1737946236816344
-0.6824759027023857 -0.7214400690605832 0.1172640992990773
-0.6531049653082074 -0.7555970286653282 0.0502696186766096
-0.6223955644471864 -0.7821543832540448 -0.02929645222466848
-0.5886935114042179 -0.7988455323609954 -0.1236356140335335
-0.5492546628330889 -0.8021392362856168 -0.2342903347712759
-0.4977978748750472 -0.7885164847877938 -0.3611634380551101
-0.4076190249179217 -0.7617024251187181 -0.5036428755509458
0 0 0
0 0 0
0 0 0
0 0 0
0 0 0
-0.3869392260162266 0.7246859815558563 -0.5701826580196804
-0.4615016827795929 0.78110718291559 -0.4205802724680206
-0.5198483186267843 0.8074357004615613 -0.2789360414881031
-0.5616030348014452 0.8125819336567 -0.1559250858474804
-0.5949535504545576 0.8021093672134901 -0.05148626836244832
-0.6244962112419623 0.780179745432912 0.03638745608957002
-0.6525364048702509 0.7496864783542759 0.1103015162714052
-0.6802179119358873 0.7123358519098625 0.1728618707680529
-0.7080142151590253 0.6689531508722986 0.2263129538289234
-0.7359570955892167 0.619794508558008 0.2724370030176174
-0.7637586305687101 0.5647833338919532 0.3125580585902375
-0.7908773840780622 0.5036960175508489 0.347567670040318
-0.8165568264752699 0.436326361332197 0.3779606534326561
-0.8398610629035067 0.3626415945280171 0.4038867030947766
-0.8597305303100051 0.2829238510638384 0.4252264217473833
-0.8750736717333299 0.197874150384464 0.4416920756010619
-0.8848958435175026 0.1086515819587909 0.4529394880812435
-0.8884467780613364 0.01683104504013418 0.4586709479303071
-0.8853522033822431 -0.07572081155095638 0.4587132379431306
-0.8756915505416738 -0.1670330333095831 0.4530610048253083
-0.8599957570575869 -0.2552441015166118 0.4418797873674748
-0.8391639382977013 -0.3387945875022373 0.4254669342497485
-0.814323735309352 -0.4165576708074678 0.4041739242000668
-0.7866746754559567 -0.4878848632532099 0.3783005619935838
-0.7573512336842724 -0.5525663677172619 0.3479791920570282
-0.7273250605452949 -0.6107249372628438 0.3130707704466804
-0.6973435119403975 -0.66267312575527 0.2730867165505713
-0.6678856860915133 -0.7087579862157162 0.227136142631485
-0.639110927468253 -0.7491992506267642 0.1738899227987746
-0.6107737294558304 -0.7839073100692697 0.1115561769987533
-0.5820788375157535 -0.8122496001894621 0.03787893752954406
-0.5514358005292693 -0.8327322081342269 -0.04975567736990352
-0.5159868461708337 -0.8426518386364978 -0.1539332758736896
-0.4705946827191464 -0.8379019924763823 -0.2765156335554536
-0.40690222574885 -0.8126860501108852 -0.4170994637203447
-0.3266682036865498 -0.7576165338696348 -0.5650708560061851
0 0 0
0 0 0
0 0 0
0 0 0
-0.4136022670885491 0.765195289971389 -0.4933653138038929
-0.4500967737328443 0.8242063460510435 -0.3436521401133297
-0.4891809653411988 0.8473281067333432 -0.2067294432042524
-0.5228428853054139 0.8477549793544673 -0.089144894779318
-0.5523220701991075 0.8335767175894719 0.009496665927220069
-0.5797757554825114 0.8095701985269873 0.09195741955740556
-0.6067098879389653 0.7783627403663476 0.1614142381776695
-0.6339647841121658 0.7411916849540902 0.2207340903905217
-0.661889048714603 0.6984221449460526 0.2722304072667713
-0.6904640433751291 0.6498989465940738 0.3176330650640457
-0.7193717763518235 0.5951852110582785 0.3581323944101316
-0.7480258960906858 0.5337415485215063 0.3944327802802276
-0.7755857603823813 0.465088033741871 0.426801885143685
-0.8009761303567619 0.3889710534858406 0.4551249917866761
-0.8229373994909317 0.305533885676657 0.4789812952740698
-0.8401280971445494 0.2154657131133395 0.4977542635285387
-0.8512867476242233 0.1200861279144223 0.5107741136763809
-0.855433606194235 0.02131958492124234 0.5174734975748146
-0.8520631201671004 -0.07846591008978533 0.5175244344037165
-0.8412628976445287 -0.1767386474706433 0.5109209210210304
-0.8237114224907417 -0.2711332322500933 0.4979821912758479
-0.8005531133390839 -0.3597367059470539 0.4792746760652621
-0.773197098292163 -0.441257731581471 0.4554754236093894
-0.7431054067582501 -0.5150565024313483 0.4272132415431917
-0.7116225076939903 -0.5810594233882396 0.3949219581576116
-0.679867095021104 -0.6396060847546088 0.3587266221685317
-0.6486779359122812 -0.6912745274756599 0.3183652982406927
-0.618589182370732 -0.7367123702451024 0.273134228872457
-0.5898068737112869 -0.7764760860398298 0.221839445390544
-0.5621612717904432 -0.8108567865813303 0.162745126360054
-0.5350143415072276 -0.8396495561392171 0.09353222576632368
-0.5071083098619845 -0.861807849058882 0.0113310797995534
-0.4763841171383622 -0.8749191268096547 -0.08703272074877295
-0.4400660711894027 -0.8744101871286751 -0.2043249315025415
-0.3965395400572915 -0.8523020705404933 -0.3410829425866073
-0.3547202730194233 -0.7951668345388444 -0.4918162595507589
0 0 0
0 0 0
0 0 0
-0.2969367977012207 0.7569945939572319 -0.5820547421767727
-0.3757997369939797 0.8241887183749244 -0.4236596678688622
-0.4178381306757488 0.8656048799096531 -0.2759338479237192
-0.4502907881566033 0.8810482275145741 -0.1448869452184417
-0.4784138984724269 0.8775006717338786 -0.03335735083913886
-0.5044256627420971 0.8613752634047511 0.05989496107011969
-0.5298052465700469 0.8368245098196689 0.1379533996388697
-0.555524549882833 0.8060444159285041 0.2041687391055536
-0.5821439579508694 0.7698959209400731 0.2614740582565168
-0.6098960504554702 0.7284037305692054 0.312177534316104
-0.6387349414696748 0.6810922313147931 0.3579539732819944
-0.6683508419604738 0.6272090337768143 0.3998949612079154
-0.698160160093533 0.5658959203090832 0.4385592300199683
-0.7272858762513004 0.4963553262436285 0.474011228047352
-0.7545495911950472 0.418041976399996 0.5058614636389805
-0.7785046843341213 0.3308840577105806 0.5333349761855211
-0.7975424676885964 0.2355053591943159 0.5553946687032021
-0.8100902204122158 0.1333841383525449 0.5709312624374635
-0.8148841267422887 0.02686338427084255 0.579001052303857
-0.8112487280646932 -0.0810537329004921 0.5790559503159541
-0.7992781262313132 -0.1871132470003539 0.5710894060697893
-0.7798344417320577 -0.2883095688994292 0.55564002372892
-0.7543612996097093 -0.3823036528899695 0.5336505847819671
-0.7245944979598975 -0.4676385524079759 0.5062380841343487
-0.6922767189997291 -0.5437352283351097 0.4744522587134932
-0.6589490713791261 -0.6107324111815322 0.4390809074202366
-0.6258391456220108 -0.6692582674383453 0.4005230770786311
-0.5938259595514532 -0.7202023112259077 0.3587190553450647
-0.5634464845968236 -0.7645194692681594 0.3131102682848529
-0.534909868289986 -0.8030638416613609 0.2626021687307361
-0.5080937882921038 -0.836423266488258 0.2055159886142445
-0.4825058495260245 -0.8647060650568851 0.1395404107311084
-0.4572023432515909 -0.8872170707312818 0.06174047884700556
-0.4306796558984796 -0.901964115033003 -0.03123730442753009
-0.4008025097629482 -0.9050167774137324 -0.1424850194490069
-0.3647404340439854 -0.8901118182417543 -0.2732496419023507
-0.3171459892790477 -0.8500624369366372 -0.4204905168889774
-0.2320597557258658 -0.7838846280993221 -0.5759107219023086
0 0 0
0 0 0
-0.3252465496606468 0.7871995949066289 -0.523957517087677
-0.3534437593950444 0.8613098767521029 -0.3649969933492258
-0.3810232149983996 0.8981592551943259 -0.2193883815088123
-0.4058775773519503 0.9091503987422528 -0.09332172667559147
-0.4291251141738132 0.9031544326648695 0.01279480922518075
-0.4519026206143972 0.8862852921956084 0.1014021810395835
-0.4750714317837046 0.8621725061488725 0.1759707485463215
-0.4992207259271602 0.8325936579637977 0.2399301305030723
-0.5247085476530544 0.7980900857841915 0.2961978308374379
-0.5516910195629791 0.758417318196848 0.3470449400188119
-0.5801249031317379 0.7128380705000805 0.3941027556515098
-0.6097433773086016 0.6603150201297577 0.4384028832242522
-0.6400107307136177 0.5996646339046273 0.4804046121921079
-0.6700668078789717 0.529725026004476 0.5200017978848166
-0.6986822100626285 0.4495769156138983 0.5565283158017156
-0.7242598178655538 0.3588323500449981 0.5888013763456551
-0.7449299641641195 0.2579626431166188 0.6152516747207855
-0.7587793598507055 0.1485760200906378 0.6341758820063872
-0.7642089092236447 0.03350101703305126 0.6440981485153932
-0.7603315069672032 -0.08346078177766933 0.6441508343688155
-0.747244592038576 -0.1981272903850514 0.6343272786770082
-0.7260307895287714 -0.3066863021812743 0.6154858281963966
-0.6984826145611245 -0.406301157546481 0.5891022038086811
-0.6666932710111797 -0.4953741564826418 0.5568882540308461
-0.6326822654854163 -0.5734718258191739 0.5204259946734634
-0.5981523867449891 -0.6410453498988711 0.480910159597722
-0.5643878115092892 -0.6990939501792836 0.439014859705773
-0.5322526062448079 -0.7488665479993803 0.3948494098173386
-0.5022378045027184 -0.7916346300880182 0.3479537328060948
-0.474515696733382 -0.8285237325366384 0.2972932528282288
-0.4489750993365879 -0.8603649647457755 0.241233263903842
-0.4252233241502293 -0.8875128177494755 0.1774996420532002
-0.4025498481264406 -0.9095654847886083 0.1031709680803805
-0.3798620658676391 -0.9249246023873466 0.01480847100065284
-0.3556401776482304 -0.9301742887663416 -0.0910815928734502
-0.3280400238492662 -0.9194034089351101 -0.216995655236391
-0.2955779678846721 -0.8838013827033804 -0.3626689686653109
-0.26142673187653 -0.8115642298603689 -0.5225127411570964
0 0 0
0 0 0
-0.306490594063024 0.827637837456488 -0.470190520705428
-0.3192327112378165 0.8946410882067278 -0.3125824681072721
-0.3372162809395344 0.9257157588071216 -0.171276133087664
-0.3561241005955056 0.9330730147481588 -0.05050122893379645
-0.3753022080141405 0.9255167118440604 0.05066624869741689
-0.3950526552579958 0.9086342192162429 0.1353412547706536
-0.4158000870668106 0.8855384498678515 0.2072002446930857
-0.4378929583371876 0.8576274388745265 0.2696756072176822
-0.4615723280337897 0.8251733013938157 0.3256378489369713
-0.4869646075955296 0.7877143898914651 0.3773214954216734
-0.5140593356837766 0.7442957820535784 0.4263411641087518
-0.5426635001934865 0.693621350575008 0.473714837834171
-0.5723322847987209 0.6341798931656812 0.5198573062691725
-0.6022823716978105 0.5644042560829651 0.564538555333021
-0.6313064585178871 0.4829166350100828 0.6068308488072611
-0.6577294181801367 0.3888935836065875 0.6450998318787909
-0.6794713392736772 0.2825326277608733 0.6771218600489656
-0.6942895034053699 0.1655071312808477 0.7004066497088018
-0.7002233295084357 0.04118443674733018 0.7127349654548494
-0.6961405332705871 -0.08564936531557014 0.7127780469113664
-0.6821366623852104 -0.2096359774280861 0.7005300356142737
-0.6595403099892025 -0.3259673267882725 0.6773122480553955
-0.630516603584939 -0.431251550217509 0.6453455764462227
-0.5975074964243602 -0.5238115045576245 0.6071295573514526
-0.5627629220422883 -0.6034784307356099 0.5648997054445243
-0.5280783099186535 -0.671134123277673 0.5203001894731223
-0.4947226620188258 -0.7282327851861475 0.4742641650652431
-0.4634842554424424 -0.7764238682403954 0.4270226244399529
-0.4347623333486191 -0.8172990418468241 0.3781586832237585
-0.4086569196365085 -0.8522316156258594 0.3266508768715266
-0.3850318588949215 -0.8822550708568235 0.2708808918756392
-0.3635409454855314 -0.9079206104849671 0.2086100333447314
-0.3436167945209566 -0.9290690464413187 0.1369605982308819
-0.3244382706336763 -0.9444497177863954 0.05248370338901958
-0.3049411906191998 -0.9511335906307088 -0.04853620337108514
-0.2840857265736583 -0.9437318378368302 -0.1693089430899456
-0.2620255741090932 -0.9135714930715111 -0.3110140279149628
-0.2439165878107001 -0.8481900489767477 -0.4701896840718721
0 0 0
0 0 0
-0.2572561134436573 0.8683199126001768 -0.4240752544984023
-0.2697575803747999 0.9248336317884429 -0.2681671145821793
-0.285166497886275 0.9493989550610992 -0.1316119014837536
-0.3009817613229676 0.9534982523285439 -0.01584494106445044
-0.3171764520419787 0.94489606840786 0.08105873288813803
-0.3341328933024466 0.9284008561390384 0.1625640179548826
-0.3522110176242428 0.9066037987938866 0.2324154708202284
-0.3716893082901789 0.88057029930486 0.2940119148689677
-0.392773401619046 0.8503539204660607 0.3501817598456595
-0.4155975896180507 0.8153226638787626 0.4031471161614623
-0.4402028947126225 0.7743452547127933 0.4545446490614607
-0.466488023999308 0.7258980203353401 0.5054314864929315
-0.4941312649861046 0.668153906781417 0.5562415390960664
-0.5224844432276863 0.5991191504416156 0.6066846381433856
-0.5504522040963182 0.5168889164018859 0.6556128576426705
-0.5763963632367531 0.4200852088830719 0.7009248531227223
-0.5981446743146747 0.3084865684207122 0.739634359459459
-0.6132134740507493 0.1837254014316803 0.7682540023399673
-0.6193182049967835 0.04972842555450106 0.7835636825755977
-0.6150799714675305 -0.08754629039660414 0.7835893540224337
-0.6005849826660266 -0.2212931740242526 0.7683274105004454
-0.5773977527981571 -0.3455193765822905 0.7397487380657187
-0.5480153342000593 -0.4562555955522382 0.7010777596022205
-0.5151438290708112 -0.5518502627651789 0.6558110420359398
-0.481151940247601 -0.6325437335205606 0.6069441783062411
-0.4478176854883983 -0.6997663327886108 0.5565845848201263
-0.4163073314600986 -0.7554942862145176 0.505881991446412
-0.3872749155207766 -0.8017976267884283 0.4551249339300352
-0.3609936507387234 -0.8405758650821448 0.4038759700300723
-0.3374698105895972 -0.8734192669816385 0.3510739395139971
-0.3165187247638156 -0.9015235799975516 0.2950781787633327
-0.2977973939405388 -0.9255910877379956 0.2336618292794461
-0.280794647647431 -0.9456543815526811 0.1639882816019813
-0.26478777203849 -0.9607589533633449 0.08264181333357899
-0.2488027081030009 -0.968450713056179 -0.01415728863839051
-0.231712394955826 -0.9640658648974023 -0.1299475823686541
-0.2129418687754449 -0.9399254801353608 -0.2668255091154743
-0.19553658268402 -0.8843726010951567 -0.4238520346352505
0 0 0
-0.08920076910870058 0.8271687732517816 -0.5548288414885785
-0.175827837949548 0.9047852716815551 -0.3878765055402578
-0.2084812296081882 0.9494914757810958 -0.2345240165102374
-0.2270350806962622 0.9685751714510203 -0.101573664804748
-0.241667423196973 0.9703021374481434 0.01051753910847936
-0.2554880893405789 0.961168633855964 0.1043105627276532
-0.2696591164864575 0.945300221521034 0.1835523143085551
-0.2847157987052618 0.9248776683544636 0.2520678728970333
-0.3009630489694304 0.9007165448475839 0.313258597635969
-0.3186087931774321 0.8727114536643115 0.3699502068564683