# OOMMF: rectangular mesh v1.0
# Segment count: 1
# Begin: Segment
# Begin: Header
# Title: 
# Desc: time = 8.8e-10
# Desc: stepsize = 6.55456164768111e-14
# Desc: step = 5630
# meshunit: m
# valueunit: (none)
# valuemultiplier: 384000.0000000001
# xmin: 0
# ymin: 0
# zmin: 0
# xmax: 9.357999999999999e-08
# ymax: 9.357999999999999e-08
# zmax: 2.3395e-08
# ValueRangeMaxMag: 1
# ValueRangeMinMag: 0
# meshtype: rectangular
# xbase: 1.16975e-09
# ybase: 1.16975e-09
# zbase: 1.16975e-09
# xstepsize: 2.3395e-09
# ystepsize: 2.3395e-09
# zstepsize: 2.3395e-09
# xnodes: 40
# ynodes: 40
# znodes: 10
# End: Header
# Begin: Data Text
0 0 0
0 0 0
0 0 0
0 0 0
0 0 0
0 0 0
0 0 0
0 0 0
0 0 0
0 0 0
0 0 0
0 0 0
0 0 0
0 0 0
0 0 0
0 0 0
-0.8369364884708397 0.0213135682395956 -0.5468848563226044
-0.8464862100665332 0.03983744975673705 -0.5309181422442409
-0.8566225551864872 0.02064050489882189 -0.5155305689319445
-0.8617292106378033 -0.01421347902306239 -0.5071693450393157
-0.8600537147101818 -0.05353893008240521 -0.5073866284982761
-0.8516994353247953 -0.08869454343346277 -0.5164700860965267
-0.8386937421391184 -0.1083883728897252 -0.5337085042595809
-0.8272239649984899 -0.08990949747836723 -0.5546321249218835
0 0 0
0 0 0
0 0 0
0 0 0
0 0 0
0 0 0
0 0 0
0 0 0
0 0 0
0 0 0
0 0 0
0 0 0
0 0 0
0 0 0
0 0 0
0 0 0
0 0 0
0 0 0
0 0 0
0 0 0
0 0 0
0 0 0
0 0 0
0 0 0
0 0 0
0 0 0
0 0 0
0 0 0
-0.7832047854524777 0.2325424872219987 -0.5766404908441168
-0.8109417162512599 0.2620220454965217 -0.5231806385153018
-0.8476555295334215 0.2445956360316739 -0.4708004652564342
-0.883942745451337 0.1962742630546792 -0.4244073944057697
-0.9155862736687327 0.114361532353436 -0.3855168159590161
-0.9284713958974775 0.07358002529402646 -0.3640423696191411
-0.9363870290385604 0.03454215650324492 -0.3492651876045522
-0.9398205446940825 -0.008368008553369097 -0.3415659822110045
-0.9382666842286815 -0.05305725084985688 -0.3418194807186541
-0.9317642726899725 -0.09614095005877511 -0.3501032102970805
-0.9208466358439683 -0.1354841824236068 -0.365630290823739
-0.904760462333509 -0.1765096431725157 -0.387624627268657
-0.8682346203840621 -0.2579160592439001 -0.4238489711567556
-0.8275058803609621 -0.3071351705219914 -0.470002132970113
-0.7870289604155393 -0.325881590652618 -0.523819247776324
-0.756796210746903 -0.2975678891452098 -0.5819904180901886
0 0 0
0 0 0
0 0 0
0 0 0
0 0 0
0 0 0
0 0 0
0 0 0
0 0 0
0 0 0
0 0 0
0 0 0
0 0 0
0 0 0
0 0 0
0 0 0
0 0 0
0 0 0
0 0 0
0 0 0
0 0 0
0 0 0
-0.7568580638187106 0.3269613211903644 -0.5659171014186117
-0.7944697964161116 0.3551456266340269 -0.4926350844847186
-0.8494697966492329 0.3176707784242358 -0.4212912782340147
-0.8832867887444552 0.2962001830448145 -0.363414227010619
-0.9131390156454742 0.2627280168750527 -0.3116907558060008
-0.9395809163311352 0.2137057160217172 -0.2674276885552215
-0.9603913025006098 0.1524461033221085 -0.2332567933910749
-0.9723560562934189 0.09886366688581698 -0.2115411902193025
-0.9790468372110778 0.04814982320484956 -0.1978607719390746
-0.9815652981762804 -0.002715333161951242 -0.1911078030377847
-0.9800470273428554 -0.05394167371674835 -0.1913063512617065
-0.9744892672534716 -0.1048212351417254 -0.1984519505350202
-0.9647058077073879 -0.1555634187004281 -0.2124681795890173
-0.9494039093015116 -0.2091649954486947 -0.2342695491991091
-0.9247007755372659 -0.2704229385508441 -0.2679550522500079
-0.8944684711673209 -0.3198802240681684 -0.3124144624336292
-0.8611015579773473 -0.354074827612919 -0.3648768604609863
-0.8239449279098794 -0.3764125814824094 -0.4235898066211357
-0.7649016083729985 -0.4141877930464202 -0.4933295061110118
-0.7243611957224786 -0.3875056835973744 -0.5702106657291072
0 0 0
0 0 0
0 0 0
0 0 0
0 0 0
0 0 0
0 0 0
0 0 0
0 0 0
0 0 0
0 0 0
0 0 0
0 0 0
0 0 0
0 0 0
0 0 0
0 0 0
0 0 0
0 0 0
-0.7609704281413255 0.4078293198996142 -0.5045782925618434
-0.8120350506465743 0.4072441207709668 -0.4180326573593228
-0.8517245459882976 0.3970046712282249 -0.3419833165287403
-0.8896153611563422 0.3653117148734569 -0.2741019156643821
-0.9189801724247225 0.3287047257840834 -0.2177811882083419
-0.9433807992214874 0.2848285959080529 -0.1700157010786776
-0.9637881128886765 0.2325175878776559 -0.1305681614408339
-0.9796012787225098 0.1739935505449794 -0.1005364565417675
-0.9900350706088311 0.1156808724852622 -0.0803025199207016
-0.9959940628475664 0.05830574908784914 -0.06779576974783783
-0.9980872916360151 0.001242518897612482 -0.06180788316608791
-0.9965199635378568 -0.05576127165385601 -0.06195678214733871
-0.9912852170967227 -0.1126877469384757 -0.06822822037421745
-0.982147048691958 -0.1697983144701895 -0.08096732148687145
-0.9684348411338263 -0.2277386775400962 -0.1013363371668237
-0.9492198999398829 -0.2858495141971895 -0.1314215994094904
-0.9255013518019496 -0.3378770987390357 -0.171132445668421
-0.8979119211991733 -0.3816610532576057 -0.2192920933246432
-0.8653243618910705 -0.4184507504569291 -0.2758853351663398
-0.8238886885519133 -0.4506802957632259 -0.3436490941163367
-0.7807547152326443 -0.4620553167199513 -0.4206268642547896
-0.726326143530596 -0.462978612008183 -0.5080365518808149
0 0 0
0 0 0
0 0 0
0 0 0
0 0 0
0 0 0
0 0 0
0 0 0
0 0 0
0 0 0
0 0 0
0 0 0
0 0 0
0 0 0
0 0 0
0 0 0
-0.6565533496540263 0.4979520127279855 -0.5665522853878761
-0.7079359002304076 0.533272396822475 -0.4630845624204876
-0.7878767180634457 0.4980771633278023 -0.3621731857894817
-0.8373485257443072 0.4709978826184004 -0.2775039477247453
-0.8739278902059958 0.440585530438123 -0.2052667364398182
-0.9046016132688353 0.401425822809018 -0.1433639775310483
-0.9298219293709438 0.3563543503864078 -0.09188447432279406
-0.9508427033019009 0.3057323698492733 -0.04925313801048388
-0.9682216215075206 0.2496565810295072 -0.01478117701687181
-0.9818221794319848 0.189457140961909 0.01145424436468067
-0.991363769062773 0.1277379006208644 0.02968006291479567
-0.9969940129691729 0.06572588418981165 0.04102494669212284
-0.9989150089613917 0.00372171434973541 0.046421479015224
-0.9972309372700061 -0.05819199706454902 0.04630495901330679
-0.9919479494679987 -0.1199341574802074 0.04068247061997131
-0.9829722515585186 -0.181430055143196 0.02913224599498206
-0.9701161207473248 -0.242403869729227 0.01072735785071129
-0.9532760591116556 -0.301693164412554 -0.01568405787066644
-0.9328178552207956 -0.3568078892765407 -0.05038828367085019
-0.9088646405078195 -0.4065320521495271 -0.09325639822385069
-0.8807324483032601 -0.4509138461408165 -0.1448691059689414
-0.8469808418271708 -0.4897697718279435 -0.2067583714903478
-0.8070546193605057 -0.5203997941213531 -0.2790105654761519
-0.7535911802141532 -0.5479627503608646 -0.3630938684698431
-0.6685256309797647 -0.5834627390940836 -0.4611341592334448
-0.6131325821181407 -0.5501109251231848 -0.5669624386193977
0 0 0
0 0 0
0 0 0
0 0 0
0 0 0
0 0 0
0 0 0
0 0 0
0 0 0
0 0 0
0 0 0
0 0 0
0 0 0
-0.6353848129000379 0.5443053281809145 -0.5477388513241052
-0.6985139368575118 0.5677413614237173 -0.4356007650872103
-0.7498592336015324 0.5727891821054446 -0.3310946732363683
-0.8015967974437355 0.5495926961112872 -0.2353517425239769
-0.8421817987556736 0.5164487250356447 -0.1549533228224364
-0.8745097307050105 0.4769588464693078 -0.0879942593406883
-0.9016096554097431 0.4313558350019197 -0.0321274474821795
-0.9246223183967071 0.3806278543373698 0.01400017232850386
-0.9441993953118994 0.3252811081956354 0.05176584340723167
-0.9605618436993723 0.265694260484514 0.08202136535348238
-0.9735752665534095 0.2027236128814433 0.1051396078352562
-0.9829883441836065 0.1377191083686398 0.1215210368179843
-0.9886692305401552 0.07172468600024114 0.1318663035096668
-0.9905818075846956 0.005354308868643549 0.1368174472016475
-0.9887292768826677 -0.06100317212555653 0.1367224561865988
-0.9831342695359424 -0.1270162360743973 0.1315822322257882
-0.9738412331180449 -0.1923018641530419 0.1210505915821558
-0.9609419226630183 -0.2562680802335944 0.1044858474727048
-0.9446335316514182 -0.31792568914029 0.08118341619099465
-0.9252221535653026 -0.3760175970250232 0.05074182968232733
-0.9028308873807159 -0.4298045803148409 0.01282230602239529
-0.8771497671066095 -0.4790555712470513 -0.03337732346940622
-0.8473765600398298 -0.5234445873866529 -0.08921171128658353
-0.8121737578093561 -0.5621619721925823 -0.1560375087803409
-0.7682031384925688 -0.5950971117625099 -0.2360579708081996
-0.7123441058407001 -0.6188066962879069 -0.3311255766371104
-0.6567476601894303 -0.6152668126424102 -0.4360381406443214
-0.5896080496715087 -0.5930132103715462 -0.548359079515778
0 0 0
0 0 0
0 0 0
0 0 0
0 0 0
0 0 0
0 0 0
0 0 0
0 0 0
0 0 0
0 0 0
-0.5929368067435284 0.5898037577987363 -0.5482312199202782
-0.6615048216043999 0.6172799693265808 -0.4258835644425669
-0.7148198376943424 0.6251673697687562 -0.3133661746504378
-0.7588154961355573 0.6155515418381908 -0.2128270240481072
-0.7983864288024286 0.5890862169851339 -0.1247258564302028
-0.8323282623063917 0.5519509216861076 -0.05079216293758809
-0.8614513224409459 0.5077344576061463 0.01036048377910507
-0.8869040081841563 0.457929101914528 0.06084585348757279
-0.9092950472819685 0.4033666681013073 0.1023613601576861
-0.9288427361166004 0.3445122037826425 0.1362443136730985
-0.9454750133510711 0.2817557969189628 0.1633727946487774
-0.958914472023717 0.2157176119904023 0.1842524008544622
-0.9688092236976608 0.1472906302249943 0.1992841145858321
-0.9748658940747298 0.07737255482113614 0.2089257675116385
-0.976900333895684 0.006722453872748296 0.2135896679346382
-0.9748409214972568 -0.06401641511281789 0.2135113026761861
-0.9687251703576203 -0.1342407698664386 0.2086886676876939
-0.9587018351774366 -0.2033124231449622 0.1988840109770982
-0.9450361296470821 -0.2704918684889625 0.1836868605616976
-0.9280999275916797 -0.3349281536208531 0.1626458001807749
-0.9083012294848137 -0.3958069787055709 0.1353724939725311
-0.8859242959087416 -0.4526138416115144 0.1013846748787341
-0.860989072838095 -0.5050922612180208 0.05982995997878726
-0.8331664856690216 -0.5529426086298818 0.009385026345878206
-0.80167419367218 -0.5955261642968126 -0.05164372990001
-0.7651174117242873 -0.6315701513873686 -0.1253574495307846
-0.7224413313830589 -0.6577412734367447 -0.2132016414741727
-0.6747691674112107 -0.6680468045158736 -0.3136878028985367
-0.617091780085106 -0.6615826589226218 -0.4260353510734389
-0.5440963109100774 -0.6354327745932523 -0.5478908590465483
0 0 0
0 0 0
0 0 0
0 0 0
0 0 0
0 0 0
0 0 0
0 0 0
0 0 0
-0.5500106011251548 0.6133156254327659 -0.5668617840796472
-0.6151656053440796 0.6569243856613051 -0.4359147044149445
-0.6679424742862706 0.6749392874969006 -0.3135439510459579
-0.7113619573841186 0.6723048523633933 -0.2048666665791939
-0.7484665292579848 0.6538608227445734 -0.1107423995599476
-0.7817608885271795 0.622836829801201 -0.03040060217139964
-0.8118949430473138 0.5826404056211074 0.03683421224717534
-0.839329222391341 0.5356862634430711 0.09255638064632109
-0.8644186000742559 0.4832792280046056 0.1386422432916308
-0.8872595685426726 0.426088967245672 0.1766880019157681
-0.9077050241449459 0.3644883168178175 0.2078938576421551
-0.9254177665820889 0.2988139466293614 0.2330497427460562
-0.9399355569950892 0.2295687708211161 0.2526248763681289
-0.9507607255681256 0.1574816199622915 0.2669336660880808
-0.9574584623092913 0.08341379198145482 0.2762524791917739
-0.9597268119493824 0.008258514102728941 0.28081353843839
-0.9574326074444036 -0.067099302475209 0.2807498634185778
-0.9506258602205665 -0.1417821085011973 0.2760585220362918
-0.939540439939087 -0.2149103793344529 0.2666032456167548
-0.9245783775707471 -0.2856094187991644 0.2521548802261174
-0.9062657616955513 -0.3530592801564904 0.2324467979425884
-0.8851676689912923 -0.4165993101648735 0.2071791798001738
-0.8617742696032294 -0.475819559752339 0.1759001273646772
-0.8364029026702446 -0.5305012709831601 0.137835357909502
-0.8091277133699893 -0.5804190940536061 0.09179334787795239
-0.7797169440200442 -0.6250860972396775 0.03617814596840364
-0.747607485980623 -0.6634218201358661 -0.03089555750179201
-0.7120674833343439 -0.6932722405912259 -0.1110562902473998
-0.6721409046245156 -0.7114700235816106 -0.2050292902863383
-0.624987702323378 -0.7149007600494779 -0.3135399100995323
-0.5675433531797841 -0.6985631511621155 -0.4357798367293987
-0.4977337265390657 -0.6565673274835216 -0.566727872921987
0 0 0
0 0 0
0 0 0
0 0 0
0 0 0
0 0 0
0 0 0
0 0 0
-0.5833428153184405 0.6686932238392355 -0.461042874587435
-0.6186838817819174 0.7125035424432895 -0.3310120185567614
-0.6576144109106201 0.7225955960333277 -0.2130701554791695
-0.6931412790628254 0.7122180819732685 -0.110907939163381
-0.7253143619007685 0.6879969414016417 -0.02406834108255587
-0.7552531505568814 0.6535870561067038 0.04915931919460056
-0.7835878465783789 0.6113742472588302 0.1105061830096273
-0.8105596758182723 0.5628725479725066 0.1617637372105227
-0.8361493496797935 0.5089088474518122 0.2046119498351112
-0.8601176775268753 0.4498862296658152 0.24041622483279
-0.8820398031778111 0.3860294209679173 0.2701611958761329
-0.9013467733998355 0.3175903464874538 0.2944662389811165
-0.9173805347146686 0.2450034611519721 0.3136658389914048
-0.9294712741955234 0.1689543017775803 0.3279292520593423
-0.9370299373604905 0.09035303618042562 0.3373591933580192
-0.9396332965600735 0.01026451187787432 0.3420291037200739
-0.9370846834416136 -0.07016108551616991 0.3419791194478446
-0.9294448303781488 -0.1497476707602731 0.3372060829599701
-0.9170312067568027 -0.2273510825900657 0.3276663716027117
-0.9003837880589179 -0.3019247253805404 0.3132897930104939
-0.8801962880026472 -0.3725964133108257 0.2939836855580064
-0.8572196255047226 -0.4387416865565457 0.2695927412358506
-0.8321587047581623 -0.5000093523593887 0.2397968674698682
-0.8055877178181745 -0.5562527853649907 0.2039884008324846
-0.7778880609182599 -0.6073781785112047 0.1611890596450017
-0.7491956742034718 -0.6531452035599237 0.1100326534328354
-0.7193517050187506 -0.692927707079096 0.04882947110836144
-0.6878492961263718 -0.7254488690168553 -0.02423394851483883
-0.6537024818571515 -0.7485780618033896 -0.1109231743166426
-0.6153803712505012 -0.758899902802326 -0.2130209759770496
-0.5726032124870197 -0.7499115304260314 -0.3312978381813432
-0.5330725258272885 -0.7079512416012508 -0.4632911845949175
0 0 0
0 0 0
0 0 0
0 0 0
0 0 0
0 0 0
0 0 0
-0.4628434250698746 0.726466050112252 -0.5079596853135981
-0.5478253122944704 0.7537333179381545 -0.3630062157035417
-0.594955738795038 0.7683440092167736 -0.2359558271701385
-0.6314241963238548 0.7652570302303292 -0.1252404167185271
-0.6632713696233037 0.7477464365493615 -0.03076291380474372
-0.6927733207097606 0.7194902133909353 0.04897916850495494
-0.7211332585744845 0.6829903885904278 0.1161505594943104
-0.7489043615791766 0.6397425523992621 0.1728343827407113
-0.7761928028228116 0.5905506041399676 0.2208499870862267
-0.8027947852548473 0.5357609159505253 0.2616883140445465
-0.8282741075633603 0.4754679990589126 0.296466160988117
-0.8520085918496129 0.409701826446865 0.3259229553445752
-0.8732310977423643 0.3385951239758345 0.3504579745924665
-0.891084282813508 0.2625193207515798 0.3702058983253296
-0.9047014124184194 0.1821643260513938 0.3851383033175975
-0.9133106686216526 0.09854637253345513 0.3951610241943994
-0.9163443589142066 0.0129545115674397 0.4001814544880358
-0.9135287468785114 -0.07314340863686757 0.4001440620570999
-0.9049342049858272 -0.1582186239309641 0.3950455058446559
-0.8909735820159794 -0.2408095432014587 0.3849374495326727
-0.8723472873752883 -0.319644889233978 0.3699153349018848
-0.8499456250035735 -0.3937440811734793 0.3500828945808928
-0.8247299749489377 -0.4624738368553387 0.3254818253682155
-0.7976198655497404 -0.5255397618906438 0.2959907240984739
-0.7694054886435128 -0.582905596811324 0.2612207098437462
-0.7406859504576842 -0.6346585539609573 0.2204378431186062
-0.7118177309420974 -0.6808456576137007 0.1725245154318966
-0.6828528015037177 -0.7212906987476927 0.1159818062395503
-0.653442384485733 -0.7553902826234959 0.04897520878560491
-0.6226837214402098 -0.7818750745444781 -0.03059985064403163
-0.5889225026312979 -0.7984738586792114 -0.1249391167746066
-0.5494153895046171 -0.8016524591372132 -0.2355760270798962
-0.4978819958477219 -0.7878948352022931 -0.3624020514183657
-0.4076062010386176 -0.7609451006117176 -0.5047967301101388
0 0 0
0 0 0
0 0 0
0 0 0
0 0 0
-0.3873575215300956 0.7244837118641013 -0.5701556820357705
-0.461906411578029 0.7808779617193127 -0.4205616195567534
-0.5202475944469876 0.8071789871929688 -0.2789346215625716
-0.5620051141556031 0.8122992045073212 -0.1559495239483605
-0.5953640830970039 0.8018010913594655 -0.05154239471379762
-0.6249188137662827 0.7798456147453491 0.0362945362746273
-0.6529731672921389 0.7493259834741754 0.110166298326355
-0.6806696478963957 0.7119488317863234 0.1726779990348665
-0.7084805957201435 0.6685403343019771 0.2260731450204344
-0.7364367923025962 0.6193580091383989 0.2721332531301184
-0.7642495152088237 0.5643270615551771 0.3121820720342164
-0.7913768255252597 0.5032259401189659 0.3471114708749118
-0.8170620705344089 0.4358505777921151 0.3774173376148787
-0.8403696844238288 0.3621701223093611 0.4032512814707679
-0.8602408838930506 0.282468076781533 0.4244966516690611
-0.8755852530552239 0.1974458934229119 0.4408691232130538
-0.8854094204687982 0.1082618918055878 0.452028230233225
-0.8889641987457162 0.01648893630365223 0.4576797661334397
-0.8858758665263414 -0.07600933690821686 0.4576532855874371
-0.8762236730336938 -0.1672654427393799 0.4519450702027195
-0.8605376482860461 -0.2554211359741377 0.4407209992500942
-0.8397154816417743 -0.3389195591612039 0.424277553388224
-0.814883166328588 -0.416635452200329 0.4029644217596896
-0.7872386253358727 -0.4879208409303236 0.3770790364965024
-0.7579149410817028 -0.5525654685870562 0.3467511283475299
-0.7278826444157741 -0.6106908028368545 0.3118390599151702
-0.6978882378092026 -0.6626073747067049 0.2718519349054807
-0.6684101709914236 -0.7086595547342371 0.2258970535422885
-0.6396072617640391 -0.7490637516343068 0.172644277884455
-0.6112334965895109 -0.7837264304080515 0.1103018355550496
-0.5824930658930588 -0.8120105528950338 0.03661543627495998
-0.5517949430218422 -0.8324174383436156 -0.05102498600660504
-0.516280995080315 -0.84223952190795 -0.1551983307099231
-0.470814038199485 -0.8373682452998926 -0.2777563018145078
-0.4070386321425613 -0.8120095029214324 -0.4182823437688954
-0.3267325050559486 -0.7567828133705942 -0.5661498419382912
0 0 0
0 0 0
0 0 0
0 0 0
-0.4140298609271872 0.7650117641396429 -0.4932912679022045
-0.4505202899355897 0.8239974577956118 -0.3435981052082807
-0.4896055817476971 0.8470907588076765 -0.2066969294985617
-0.5232749329381284 0.847488962969255 -0.08913922932072596
-0.5527668309829203 0.8332821529385246 0.00947017208059454
-0.5802370424645891 0.8092469206467469 0.09189339462498676
-0.6071901270446562 0.778010473205848 0.1613067053829625
-0.6344651352242097 0.7408104819934052 0.2205761137422258
-0.662409507071819 0.6980129128072692 0.2720140042262179
-0.6910035392541074 0.6494639937630369 0.3173493808780205
-0.7199283423356807 0.5947287444528148 0.3577721375727527
-0.7485969283767545 0.5332700608873577 0.3939869045870449
-0.776168411297428 0.4646104613531065 0.4262624971836949
-0.8015677996592222 0.3884986016774092 0.4544864123867403
-0.8235362689108015 0.3050793798352992 0.4782411376991577
-0.8407335586239159 0.2150424584268494 0.4969143029510247
-0.8518995626437569 0.1197063674169852 0.509840681749902
-0.8560556436058496 0.02099290627570356 0.5164571937118055
-0.8526966807586626 -0.07873380319164952 0.5164391143766491
-0.8419098072446729 -0.1769463838054274 0.50978216301026
-0.8243722084601933 -0.2712833676003669 0.4968055921402929
-0.801226517404949 -0.3598346384684564 0.4780743674005244
-0.773880008453708 -0.4413103562108596 0.4542630317522353
-0.7437931175584824 -0.515070909463793 0.4259973667721129
-0.7123091406270089 -0.5810418634719156 0.393708065795324
-0.6805460309945186 -0.6395611908632023 0.3575172483101332
-0.6493421591422653 -0.6912047593264493 0.3171604342362486
-0.6192314958770623 -0.7366175488235761 0.2719318688182786
-0.5904199682167344 -0.7763529503996854 0.2206362561698628
-0.5627376705976602 -0.8106984669776681 0.1615373323116894
-0.5355462655466329 -0.8394449401017254 0.09231679152063998
-0.5075875922249201 -0.8615408726174558 0.01010747391094229
-0.4768024242436161 -0.8745682638772493 -0.08825984395037127
-0.440416065656979 -0.8739486923599634 -0.2055416557137194
-0.3968189211469963 -0.851699843564978 -0.3422603107155802
-0.3549444372832605 -0.7943936537715141 -0.4929027990275697
0 0 0
0 0 0
0 0 0
-0.2974017543085832 0.7568816214525044 -0.5819642666363668
-0.3762466477661676 0.8240357674219804 -0.4235605199425323
-0.4182819371023278 0.8654178739028997 -0.2758480100042562
-0.4507400509247596 0.8808290256120995 -0.1448227680013885
-0.4788753760404675 0.8772503100754652 -0.03332067968394953
-0.5049047913037494 0.8610942305324194 0.05989889700401233
-0.5303061348504708 0.8365128270326234 0.1379191558480611
-0.556050027263389 0.805701933222335 0.2040900830079113
-0.5826956494334782 0.7695227662137661 0.2613436289830106
-0.6104744258026846 0.7280008590849503 0.3119867378791228
-0.6393393749272304 0.6806620180672724 0.3576931377986523
-0.6689797140396968 0.6267558713539892 0.3995537760135255
-0.6988110757099554 0.5654267177942867 0.4381275011563123
-0.7279560226525129 0.4958797938460925 0.4734799458679216
-0.7552362542090667 0.4175724931902264 0.5052241218104651
-0.7792058349495001 0.3304349610879502 0.5325889627766017
-0.7982572697760358 0.235091537722041 0.5545424241130651
-0.8108192112913702 0.1330190871866856 0.569980814628756
-0.8156288845427853 0.02655713350273181 0.5779656056891354
-0.8120110102877764 -0.08129612745240436 0.5779524710844884
-0.8000587716339569 -0.1872921194497456 0.5699365086775767
-0.7806324769018786 -0.2884298202448406 0.5544557464753755
-0.7551735824630371 -0.3823731368080772 0.5324506029647194
-0.7254159209190005 -0.4676662546592515 0.5050346680478734
-0.6931007670996961 -0.5437297530785968 0.4732539300025939
-0.6597684729897482 -0.6107009261561734 0.4378926133662992
-0.626646424312598 -0.6692058992985518 0.3993466204192183
-0.5946138026397303 -0.7201318024152229 0.3575536503247051
-0.5642079143413319 -0.764430957437907 0.3119531065804094
-0.5356382499888608 -0.8029545863196388 0.2614490341483934
-0.5087827210126 -0.8362872352333762 0.2043619411356476
-0.4831490151012092 -0.8645332856384418 0.1383807328710583
-0.4577934181539099 -0.886992787966145 0.06057210901895613
-0.4312124853902242 -0.9016679898275753 -0.03241340099225295
-0.4012718863696833 -0.9046229190040239 -0.1436601810591741
-0.3651439192890574 -0.8895914824116213 -0.2744028291160998
-0.317485807425867 -0.8493927241653164 -0.421586008091074
-0.2323334511148673 -0.783068914578696 -0.5769092151401276
0 0 0
0 0 0
-0.3257111008038663 0.7871039229484446 -0.5238126509471702
-0.3539033422700729 0.8611784684058436 -0.3648617133712945
-0.381485772190897 0.8979919791072469 -0.2192692661431696
-0.406350834468782 0.9089488711850958 -0.09322525890478299
-0.4296158313977524 0.9029201371552077 0.01286325511051609
-0.4524164468357211 0.8860190562311521 0.1014376193914226
-0.4756128572119792 0.8618745485079438 0.1759678171964545
-0.4997931099263603 0.8322639155959402 0.2398825172184296
-0.5253141468505336 0.7977286958768109 0.2960979143685035
-0.5523310022920591 0.7580251916149572 0.3468836588600797
-0.5807993431867002 0.7124175459240332 0.3938697287346101
-0.6104512929603815 0.6598705440697532 0.4380868452625413
-0.6407502132145348 0.5992033963185955 0.4799942229920975
-0.6708353198744779 0.5292573709360284 0.5194868707857684
-0.6994770597926191 0.4491163073594353 0.555901416878656
-0.7250787698454669 0.3583945972717859 0.5880595974608172
-0.7457717877392471 0.2575642258307536 0.6143981690926587
-0.7596440378953826 0.1482316150493322 0.6332205966247975
-0.7650972178546486 0.0332208437738483 0.6430572468839999
-0.7612439628817426 -0.08367284902480882 0.643044697756051
-0.7481801674810529 -0.1982739615201408 0.6331776000231946
-0.7269860497113385 -0.306775413974614 0.6143127289140334
-0.6994516537891766 -0.4063432674712791 0.5879222167875181
-0.6676683410255384 -0.4953802130850453 0.5557134431305579
-0.6336546979474493 -0.5734514853554286 0.5192640154225774
-0.5991134456433119 -0.6410060824005268 0.4797648190258709
-0.5653292829756206 -0.6990407031509308 0.4378868542769036
-0.5331670947868903 -0.7488017218222599 0.3937370066840623
-0.5031187921810368 -0.7915580950443869 0.3468533740991936
-0.4753574457748199 -0.8284327482073141 0.2962000682716257
-0.4497724795213379 -0.8602538659639595 0.2401416306251152
-0.4259716375260029 -0.887372428093041 0.1764039055227397
-0.4032447369912333 -0.909382254421335 0.1020666323165437
-0.3804996289626651 -0.9246796750788344 0.0136941905702615
-0.356217531137939 -0.9298430465767921 -0.0922007551096
-0.3285567213764797 -0.9189566286306929 -0.2181036348483179
-0.2960388738721004 -0.8832094038940291 -0.3637336031076751
-0.2618475520535894 -0.8108038828330784 -0.523481540330073
0 0 0
0 0 0
-0.3069621519180581 0.8275663921393028 -0.4700086210819668
-0.3197052973637912 0.8945315960489202 -0.312412782241221
-0.3376973845823266 0.9255685429468137 -0.1711237819637226
-0.3566211665396985 0.9328901389613689 -0.05037193866134092
-0.3758220941811005 0.9253001752889942 0.05076750078040196
-0.3956013349887762 0.908385257267843 0.1354097785742659
-0.4163825706181733 0.8852575388687088 0.2072308972173735
-0.4385132949136983 0.8573146419449277 0.2696621866164621
-0.4622336211717859 0.8248287681918507 0.3255726994413559
-0.4876689853069848 0.78733896559009 0.3771953261019843
-0.5148079003687296 0.743891700790286 0.4261431252681135
-0.543456276196198 0.693193004557453 0.4734329248115007
-0.5731682495745442 0.6337345804199379 0.519479200025966
-0.603159623027987 0.563952748180981 0.564052982411985
-0.6322225885577762 0.4824732477676267 0.606229464564254
-0.6586820461470532 0.3884753914183054 0.6443794164511505
-0.6804586479256128 0.2821574918207668 0.6762863138291799
-0.6953104296878612 0.1651906407998051 0.6994679825120167
-0.7012770717203987 0.04093651079395939 0.7117124916448201
-0.6972253242386141 -0.08582675964950727 0.7116955912245239
-0.6832483927407417 -0.2097487327183974 0.6994119694001658
-0.6606718882421413 -0.3260267153453077 0.6761798850658842
-0.6316584378234799 -0.4312708254268792 0.6442150984430732
-0.5986487003521129 -0.5238030515641184 0.606011630861028
-0.563892605043956 -0.6034521527264866 0.563800167919902
-0.5291865163112539 -0.6710969005050967 0.5192211292761599
-0.4958008495420344 -0.7281885936893896 0.473204912922579
-0.4645253933714406 -0.7763741035824578 0.4259805279583129
-0.4357607662921262 -0.817242800027469 0.3771296333673085
-0.4096081228553289 -0.8521657523206468 0.3256297226340363
-0.3859321787735082 -0.8821739913027078 0.269861821042144
-0.3643873857736897 -0.9078157385220977 0.2075871334659103
-0.3444069022482482 -0.9289280126198736 0.1359287793436587
-0.3251701980787463 -0.9442553846308016 0.05144036233508889
-0.3056141122563787 -0.9508632942482277 -0.04958840631794147
-0.2847010393774129 -0.9433575909179057 -0.1703577818445199
-0.26258982256333 -0.91306225701496 -0.3120318892371506
-0.244447944898584 -0.8475169655718365 -0.4711265172995088
0 0 0
0 0 0
-0.2577416664269901 0.8682787358741431 -0.4238646838511525
-0.2702460174600411 0.9247495386500956 -0.267965260460049
-0.2856669770195068 0.9492742077811839 -0.1314262404618715
-0.3015026150640253 0.9533363797874521 -0.01568183928332651
-0.317725136398649 0.9447000647647734 0.08119436762418836
-0.334715966619086 0.9281726142508451 0.1626678205577309
-0.3528341825101916 0.9063442175130892 0.2324826854476478
-0.3723574793849725 0.880279685529384 0.2940367031347583
-0.3934907279302758 0.8500325300118992 0.3501567434085351
-0.4163674262124841 0.8149713295049203 0.4030631445247424
-0.4410277030440686 0.7739661185769264 0.4543908146547848
-0.4673692532877086 0.7254953511177505 0.5051954835386211
-0.4950692465039649 0.667734951100016 0.5559104930161464
-0.5234783929753623 0.5986948207513886 0.6062465535517663
-0.5515003786536522 0.5164739929901051 0.6550587354655568
-0.5774963979008362 0.4196975476776778 0.7002512969533876
-0.5992939543662796 0.308144874781313 0.7388460546054474
-0.614409239947767 0.1834455286983492 0.7673649873869604
-0.6205569844603592 0.04951918468094132 0.7825962428902912
-0.6163563002583881 -0.08768581549821583 0.7825701942268209
-0.6018901449515961 -0.2213728694048278 0.7672824161295623
-0.5787197175961838 -0.3455541804760819 0.7386987185726641
-0.5493400802998673 -0.4562609160502693 0.7000367509360518
-0.516457216029972 -0.5518388660534799 0.6547868431202475
-0.4824412233508711 -0.6325245330781776 0.6059399153925641
-0.4490723172606512 -0.6997445226128974 0.5556002672276148
-0.4175191226032834 -0.7554720130354685 0.5049156561057703
-0.3884378077534324 -0.8017747005770814 0.4541733138596301
-0.3621033218194287 -0.8405502217029793 0.4029348695787036
-0.3385232662257616 -0.8733871274271104 0.3501384352916169
-0.3175139497152206 -0.901479271806644 0.2941428466565228
-0.2987331027960465 -0.9255265658152798 0.2327210975911311
-0.2816701451545227 -0.945558468114856 0.1630371513027519
-0.2656029544806506 -0.9606164230767462 0.08167715890251408
-0.2495582904466949 -0.9682415031752372 -0.01513443749465833
-0.2324106446229796 -0.9637650291954964 -0.1309284566690307
-0.2135886471017938 -0.9395047834566422 -0.2677884457763484
-0.1961474017547799 -0.8838038551136511 -0.4247551559087854
0 0 0
-0.08973352028384028 0.8272369270193292 -0.5546412912081879
-0.1763346937771496 0.9047857558240811 -0.3876452138597413
-0.208987219953649 0.9494379360013531 -0.234290306196255
-0.2275547475192596 0.968476284814234 -0.101353453980928
-0.2422111009156827 0.9701643913098066 0.01071617598236745
-0.2560642104492481 0.9609966095491189 0.1044827093929949
-0.2702749757275977 0.9450967792389861 0.1836940809267982
-0.2853778900832354 0.9246443425311395 0.2521751369124186
-0.3016772384273178 0.9004540718451152 0.3133262011265875