# OOMMF: rectangular mesh v1.0
# Segment count: 1
# Begin: Segment
# Begin: Header
# Title: 
# Desc: time = 3.8e-10
# Desc: stepsize = 9.705008735644572e-14
# Desc: step = 2430
# meshunit: m
# valueunit: (none)
# valuemultiplier: 384000.0000000001
# xmin: 0
# ymin: 0
# zmin: 0
# xmax: 9.357999999999999e-08
# ymax: 9.357999999999999e-08
# zmax: 2.3395e-08
# ValueRangeMaxMag: 1
# ValueRangeMinMag: 0
# meshtype: rectangular
# xbase: 1.16975e-09
# ybase: 1.16975e-09
# zbase: 1.16975e-09
# xstepsize: 2.3395e-09
# ystepsize: 2.3395e-09
# zstepsize: 2.3395e-09
# xnodes: 40
# ynodes: 40
# znodes: 10
# End: Header
# Begin: Data Text
0 0 0
0 0 0
0 0 0
0 0 0
0 0 0
0 0 0
0 0 0
0 0 0
0 0 0
0 0 0
0 0 0
0 0 0
0 0 0
0 0 0
0 0 0
0 0 0
-0.8390370218396949 0.02483442898173977 -0.5435072466117871
-0.8486933677767561 0.04270792070201164 -0.5271580417683657
-0.8589436865705111 0.02284259352889683 -0.5115603182631869
-0.8641455239713209 -0.01269423275364883 -0.5030818719205921
-0.8625342437528748 -0.05271672266863539 -0.5032450948640578
-0.8542085018819279 -0.08858354432420629 -0.5123287918784123
-0.8411970526237561 -0.1090042524791894 -0.529627785901154
-0.829696179498473 -0.0912727659356436 -0.550702761863507
0 0 0
0 0 0
0 0 0
0 0 0
0 0 0
0 0 0
0 0 0
0 0 0
0 0 0
0 0 0
0 0 0
0 0 0
0 0 0
0 0 0
0 0 0
0 0 0
0 0 0
0 0 0
0 0 0
0 0 0
0 0 0
0 0 0
0 0 0
0 0 0
0 0 0
0 0 0
0 0 0
0 0 0
-0.7837357702053791 0.2381291730921244 -0.5736311876310788
-0.8116239810329491 0.2670489912427751 -0.5195684263775494
-0.8485294040321091 0.2490463151819863 -0.466876625445297
-0.8850120735815508 0.2001618354259047 -0.4203437512962652
-0.9168607056838519 0.1177255603220904 -0.3814539799500831
-0.9298837693605717 0.07634744150899285 -0.3598433598870565
-0.9379112917216202 0.03667323962740597 -0.3449311269750995
-0.9414323464507376 -0.006899822016075825 -0.3371313238374692
-0.9399364101983326 -0.05227100404755695 -0.337323712358517
-0.9334588760795598 -0.09605009158511368 -0.3455848760793443
-0.9225327351214091 -0.1360971202009781 -0.3611245304634014
-0.9064044257353016 -0.1778276296454114 -0.3831557792101695
-0.8697894099413231 -0.2599143179790823 -0.4194173692914886
-0.8289275514366785 -0.3098243061618753 -0.4657123723721596
-0.7882899091788776 -0.329265388954636 -0.5197916147104611
-0.7579147254417723 -0.3016379949104028 -0.5784287242045943
0 0 0
0 0 0
0 0 0
0 0 0
0 0 0
0 0 0
0 0 0
0 0 0
0 0 0
0 0 0
0 0 0
0 0 0
0 0 0
0 0 0
0 0 0
0 0 0
0 0 0
0 0 0
0 0 0
0 0 0
0 0 0
0 0 0
-0.756211505038078 0.3331826005276493 -0.5631460861567605
-0.7939723903979041 0.3608915609826664 -0.4892495523731547
-0.8492139116814096 0.3230170755041131 -0.417726825975456
-0.8832152357963291 0.3010686178573247 -0.3595671489426064
-0.9132576098328364 0.2670757814858645 -0.3076216263953637
-0.9398959692136831 0.2175175934750282 -0.2632141021767323
-0.9609022252767665 0.1557158348488796 -0.2289530349994828
-0.9730281741916692 0.1015514664493375 -0.2071315328268862
-0.9798451122846488 0.05021603070699512 -0.193344009971651
-0.9824541980458307 -0.001302617157892947 -0.1864994689822557
-0.9809883646761082 -0.0532052071017444 -0.1866307431999224
-0.9754426615768134 -0.104774718653724 -0.1937366054904824
-0.9656301254137688 -0.1562119942800135 -0.2077408812353741
-0.9502580955913337 -0.2105053733758924 -0.2295583575978172
-0.9254455496632393 -0.272442800846014 -0.2632972747213381
-0.8950746652042229 -0.3225721888086749 -0.3078774540571758
-0.8615471894894422 -0.3574246796151636 -0.3605329925053195
-0.8242108019174516 -0.3803920627477551 -0.4194978338455387
-0.7649102614880412 -0.4187520743335185 -0.4894476398060075
-0.7241810350327536 -0.3926862881563596 -0.5668856212613526
0 0 0
0 0 0
0 0 0
0 0 0
0 0 0
0 0 0
0 0 0
0 0 0
0 0 0
0 0 0
0 0 0
0 0 0
0 0 0
0 0 0
0 0 0
0 0 0
0 0 0
0 0 0
0 0 0
-0.759450218526847 0.4141176703363643 -0.5017388969321657
-0.810679517793421 0.4131839783753724 -0.4148225155944719
-0.8505271772397605 0.40255881570423 -0.3384522428281022
-0.8886228017512999 0.370477728506045 -0.2703622919134079
-0.9181968532968423 0.3334442771784649 -0.2138444589244898
-0.9428135755949066 0.28909855081012 -0.1659053633654904
-0.9634392701095273 0.2362821838182639 -0.1263150918176165
-0.979461991902979 0.1772195390660822 -0.09616361781179823
-0.9900763145634733 0.1183257310888074 -0.07581498996048909
-0.99617595721898 0.06032659031382574 -0.06319940474368706
-0.9983641530468738 0.002603289595346942 -0.0571160292236834
-0.9968424406912025 -0.0550861296626149 -0.05718974344757727
-0.9916022657029913 -0.1127119616665855 -0.06341104280773145
-0.9824082941731388 -0.1705239384279449 -0.07612837817033499
-0.9685934302316638 -0.2291570098977681 -0.0965081951275278
-0.9492365800352345 -0.2879428003402026 -0.12664461636901
-0.9253476697856853 -0.3406229108425043 -0.1664563685515854
-0.8975667716464417 -0.3850309096548309 -0.2147675232584229
-0.8647693172139187 -0.4224105095096142 -0.2715573410188001
-0.8231007798979421 -0.4551975529949606 -0.3395589696632962
-0.7797507172713583 -0.467115625486621 -0.4168834505482857
-0.7250769445514814 -0.4685556689474454 -0.5046969482541968
0 0 0
0 0 0
0 0 0
0 0 0
0 0 0
0 0 0
0 0 0
0 0 0
0 0 0
0 0 0
0 0 0
0 0 0
0 0 0
0 0 0
0 0 0
0 0 0
-0.6539480319518973 0.5046245949868456 -0.5636541400900041
-0.7054591872456913 0.5394824992480237 -0.4596585342792561
-0.7856188046078943 0.5040253550902825 -0.3588335760106313
-0.8352728944229466 0.4766702090952588 -0.274052373832804
-0.8720438126069385 0.4459545277790966 -0.2016535346758823
-0.9029401159915789 0.4064642921416465 -0.1395919988642036
-0.9284016104228013 0.3610194926336234 -0.08795098466139964
-0.9496725766975865 0.3099718818157256 -0.04516004375754885
-0.9672999205204391 0.2534163669423347 -0.01053606790503601
-0.981133173260336 0.1926829282628019 0.01584252139575982
-0.9908746660269662 0.1303744444984677 0.03420380750243758
-0.9966582635883555 0.06772188212942019 0.04567332155528605
-0.9986768712055701 0.005035361831642214 0.05117765186365156
-0.9970293899870964 -0.05758908039358012 0.05114580453350558
-0.9917203721919219 -0.1200550041343689 0.04557959369950795
-0.9826582639699425 -0.1822721359971757 0.03405296889561377
-0.9696617040861311 -0.2439502491418472 0.01563507506891417
-0.9526376467423071 -0.3039148423629839 -0.01082970917252738
-0.9319641810192232 -0.3596674948485711 -0.04562957863624539
-0.907774741779515 -0.4099866374088189 -0.08863394007570825
-0.8793927635669586 -0.4549182917328864 -0.1404197821993017
-0.8453831349378549 -0.4942817203092597 -0.2025165082919497
-0.805197341612331 -0.5253827183769748 -0.2750095276372354
-0.7514418076296985 -0.5533766679181923 -0.359318066829334
-0.6659766536756624 -0.589266642582397 -0.4574275032162319
-0.6103117810706256 -0.5564216022641083 -0.5638390997618408
0 0 0
0 0 0
0 0 0
0 0 0
0 0 0
0 0 0
0 0 0
0 0 0
0 0 0
0 0 0
0 0 0
0 0 0
0 0 0
-0.631990602163522 0.5509601383597386 -0.5450053254011435
-0.695249608375643 0.5740732799278179 -0.4325134117301245
-0.7467200841790665 0.578780778273726 -0.3277528437473384
-0.7986416530922266 0.555316063170468 -0.2319387417637863
-0.8394291184642091 0.5219371659483507 -0.1514607205720485
-0.8719836098214401 0.4822061645477382 -0.08439075230693273
-0.8993385198114056 0.4363305481325933 -0.0283880177141732
-0.9226269569901089 0.385278121323882 0.01789601811330305
-0.9424888700489633 0.3295414944964595 0.05583129264908568
-0.9591311558872971 0.269492860723305 0.08626136925336939
-0.9724030736949439 0.2059869610955903 0.1095519699833316
-0.9820356556422669 0.1403762289224278 0.1260971268537888
-0.987881321006424 0.07371260102886686 0.1365904391096294
-0.9898922813719166 0.006623594743399778 0.1416665072378689
-0.9880649187393588 -0.06048418926541802 0.1416664364113429
-0.9824202305003368 -0.1272591690685265 0.1365854845569351
-0.9730063648603168 -0.1932979947422302 0.1260733880323069
-0.9599239508189654 -0.2579899559022347 0.1094860324318638
-0.9433832554176372 -0.3203305353613056 0.08611841564241701
-0.9237052092512101 -0.379052158616542 0.05557110265522193
-0.9010265949920963 -0.4334103057080532 0.01750948380165175
-0.8750485566633085 -0.4831737998914721 -0.02886351641598719
-0.8449765752612424 -0.5280217758151764 -0.08489753544579218
-0.8094750479309539 -0.5671537179185875 -0.1519434336465481
-0.7651935757310504 -0.6004704457152162 -0.2321939609087595
-0.7089990999802762 -0.6245478315601103 -0.3275061561569833
-0.6531070991216416 -0.6213902405137036 -0.4328109126064585
-0.5856387674173481 -0.5994838829493073 -0.5455697097364461
0 0 0
0 0 0
0 0 0
0 0 0
0 0 0
0 0 0
0 0 0
0 0 0
0 0 0
0 0 0
0 0 0
-0.5888020600872055 0.5963759788400572 -0.5455711006822356
-0.6574868219113488 0.6235603754903207 -0.4229462579705421
-0.7109068747989445 0.631169341988868 -0.3102203686042175
-0.7550335818360795 0.6213019606885873 -0.2095427496820083
-0.7947847404065054 0.5946324366847249 -0.1213650759458827
-0.8289454301244215 0.5573213520332094 -0.04735382184906139
-0.8583219307907718 0.5129230778135668 0.01390609110638999
-0.8840589941675275 0.4628985191640046 0.06453414435220181
-0.9067568445859872 0.4080545406229599 0.1062238987867079
-0.9266209298447357 0.3488387390881755 0.1403039075900914
-0.943562977111456 0.2856313757033665 0.1676413595696715
-0.9572867912461709 0.2190498234282945 0.1887304272279445
-0.9674206176143784 0.1499911791868786 0.2039607677489567
-0.9736527569866248 0.07936455000900729 0.2137792717131668
-0.975784811574671 0.007947126278771243 0.2185882995132465
-0.9737367178278346 -0.06359460194962649 0.2186150291190984
-0.9675442985255684 -0.1346313760404088 0.213851403961095
-0.957361602633644 -0.2044989091664738 0.2040562617330398
-0.9434654924209521 -0.2724341666950914 0.1888186681131956
-0.9262441756917015 -0.33756758610589 0.1676897486665258
-0.9061239221348872 -0.3990728942308355 0.1402863600822004
-0.8834063684879916 -0.4564306950887113 0.1061329764761842
-0.8581259602269736 -0.5093864048060895 0.06438421377372495
-0.8299638510722586 -0.5576483559797978 0.01372286363460365
-0.7981420498539442 -0.6005906854407194 -0.04754047556336155
-0.7612636481012032 -0.6369566159146723 -0.1215069031873322
-0.7182722787133849 -0.6634296379730811 -0.2096331297547873
-0.670301422793264 -0.6740258318095008 -0.3104596280594889
-0.6123108884303804 -0.6678263813565151 -0.4231823487267166
-0.5389511926431936 -0.6419209810006237 -0.5454072479346749
0 0 0
0 0 0
0 0 0
0 0 0
0 0 0
0 0 0
0 0 0
0 0 0
0 0 0
-0.5451999007899968 0.619815015830966 -0.5644345970340909
-0.6104585284179136 0.6631200280226356 -0.4331422555201631
-0.663315692787171 0.6808581906191916 -0.3105550127900622
-0.706831400683344 0.6780017290721002 -0.20174991049134
-0.7440699306053143 0.6593892908265101 -0.1075439515375649
-0.7775464407621135 0.6282397995055825 -0.02713460475765331
-0.8079083348436876 0.5879363371960408 0.0401868870976959
-0.8356117757801375 0.5408607983169007 0.09603414508168495
-0.8610058048088388 0.4882856898910926 0.142288752658328
-0.8841774776890758 0.4308532286541199 0.1805427464776814
-0.9049657899193619 0.3689155717751046 0.2119863674330794
-0.9230153457590878 0.302796497083851 0.2373961938342324
-0.9378423028791398 0.232994478011207 0.2572263364172427
-0.9489258248467907 0.1602431043699358 0.271775507433476
-0.9558092167587826 0.08541800184236906 0.2813050055015363
-0.9581730731512406 0.009435555548810504 0.2860337955196769
-0.9558738330339255 -0.06678949968132697 0.2860845645143212
-0.9489597911402798 -0.1423463028899655 0.2814477657622353
-0.9376720814992516 -0.2163223327390572 0.2719847715133943
-0.9224278792141533 -0.2878138936861697 0.2574683868937803
-0.9037738199482805 -0.3559791282914428 0.2376378391522639
-0.8822976324145666 -0.4201443039043362 0.2122019126501712
-0.8585109952635829 -0.4798955133962896 0.1807184750755824
-0.8327492613994304 -0.535018209685121 0.1424225506864355
-0.8050995275624588 -0.5852980000044491 0.09613013008155916
-0.7753370903586054 -0.63026372345721 0.04024966096881822
-0.7429003212790987 -0.6688530954122964 -0.02710441662904377
-0.7070555120260869 -0.6989290881408021 -0.1075668753111059
-0.6668417301106978 -0.7173349798979445 -0.2018728154006542
-0.6193988407110569 -0.7209582896758342 -0.3107478409796187
-0.5616370161833613 -0.704801195893268 -0.4333810521008847
-0.4914538116513997 -0.6629798075726827 -0.5647396973510883
0 0 0
0 0 0
0 0 0
0 0 0
0 0 0
0 0 0
0 0 0
0 0 0
-0.5780796828172845 0.674844636500828 -0.4587031686177158
-0.6134395438569645 0.7183102436734659 -0.3282107857251569
-0.6524141890148552 0.7281586884695956 -0.2100967643214124
-0.6880225471427014 0.7176287500985258 -0.1078607975832595
-0.7203225722653299 0.693322176656217 -0.02097024658279769
-0.750437863361736 0.658866678883537 0.05232315634640569
-0.7789982794562815 0.6166175688559201 0.1137736981132602
-0.8062423334443718 0.5680556330661453 0.165185040194307
-0.8321454087750534 0.5139749903209007 0.2082395927272938
-0.8564589256603017 0.4547492797569828 0.2442973622806981
-0.8787434263716972 0.3905793133094212 0.2743315341393875
-0.8984098642869159 0.3217005930019773 0.2989455539293756
-0.9147753983541439 0.2485406653425828 0.3184548762966004
-0.9271428501343478 0.1717895434782113 0.3330082404330342
-0.9348966453622459 0.09237434909205001 0.342688257925828
-0.937591981088193 0.01138869115931472 0.3475508232083401
-0.9350193370508257 -0.06997939278593308 0.3476229623116778
-0.9272377413845585 -0.1505114561262003 0.3428942585212431
-0.9145745344290466 -0.2290218973388948 0.3333202536798285
-0.8975893472542333 -0.3044288588999944 0.3188360606402076
-0.877001845538954 -0.3758348689975664 0.2993591725116341
-0.8535908954191529 -0.4426019623830373 0.274747313275695
-0.8280874782755441 -0.5043768074269832 0.2446940221031439
-0.8010871963726283 -0.5610202301649824 0.208603943283611
-0.7729866691594641 -0.6124529351018855 0.1655083429523802
-0.7439302898674943 -0.6584535237189267 0.1140468365181343
-0.7137612752321526 -0.6984162951945631 0.05253113920021015
-0.6819693048053824 -0.7310833949882198 -0.02085514027192033
-0.6475597958135633 -0.7543390370137353 -0.1078838638679886
-0.6089877962255235 -0.7647794598911719 -0.2103479065190509
-0.56596383750582 -0.7559177574448573 -0.3290490519895528
-0.5262122088425737 -0.7141256842793983 -0.4616548692665338
0 0 0
0 0 0
0 0 0
0 0 0
0 0 0
0 0 0
0 0 0
-0.4570058382055446 0.732274820894864 -0.5048952866975903
-0.542030503507587 0.7592927096216637 -0.3601076427718566
-0.5891668917225573 0.7736824014767902 -0.2330191308521398
-0.6256629332033291 0.7704500896759868 -0.1222806335184358
-0.6575758440264612 0.7528755737437202 -0.02779172202205594
-0.6871884334253028 0.7246172626802521 0.05197960746539504
-0.7157079228626293 0.6881486168606352 0.1192210143575994
-0.7436895169236618 0.6449335228296419 0.1760302631606214
-0.7712392279135697 0.5957425763493348 0.2242338869393687
-0.7981498433083177 0.5408886677187004 0.2653229668920446
-0.8239768976134964 0.4804344954896523 0.3004076692477086
-0.8480836469440411 0.4143821603055264 0.3302144046019487
-0.8696813584736909 0.3428433670058133 0.3551235847187176
-0.8878846150881932 0.2661788115992484 0.3752462532062145
-0.9017944274300818 0.1850814600379271 0.3905274174834333
-0.9106067202739323 0.1005867188414733 0.4008462460653194
-0.9137270055431227 0.01401881747943914 0.4060867297729345
-0.9108655602875364 -0.07310670754498978 0.4061764892186688
-0.9020911657860159 -0.1592073372434212 0.4011041664937999
-0.8878299786072323 -0.2427696869442363 0.3909230207947317
-0.8688078943782126 -0.3224799362289615 0.3757386503886191
-0.8459478241788249 -0.3973290750006412 0.3556710347023586
-0.8202452241129 -0.466670934578699 0.3307809110868125
-0.7926503431931698 -0.5302123646949664 0.3009655823517393
-0.76397767379675 -0.5879291983623038 0.2658521612723223
-0.7348427371915579 -0.6399278760960927 0.2247186351684309
-0.7056103967658363 -0.6862781530354953 0.1764547098893877
-0.6763334863088815 -0.7268269338912552 0.1195643068290474
-0.6466574281483661 -0.7609915018731933 0.05221211255371822
-0.6156676269687535 -0.7875186171113296 -0.0277092187858596
-0.5816925124139047 -0.804147207559647 -0.1223972613076821
-0.5419666785379078 -0.8073453229750036 -0.2333787668683137
-0.4901727296992471 -0.7935843010958885 -0.3604922358572217
-0.3994642362768138 -0.7665610413454655 -0.5028046278895381
0 0 0
0 0 0
0 0 0
0 0 0
0 0 0
-0.3808856221961694 0.7302663606903835 -0.5671306597674465
-0.4555103390068427 0.7862724988971248 -0.4174756143009337
-0.5138894921379736 0.8122775491933105 -0.2759035573287957
-0.5556605023611467 0.8172142950184246 -0.1529777831363003
-0.5890404766002261 0.8066393826064083 -0.04862327996886846
-0.6186428256577339 0.7846945018234216 0.03918664402965619
-0.646782294833571 0.7542455033342326 0.113076893262547
-0.6746089277753782 0.7169683850881381 0.1756676673433726
-0.7026005749249689 0.6736573112885096 0.2292122576622788
-0.7307911448841772 0.6245364417974637 0.2754968882325832
-0.7588913719137991 0.56949638313402 0.315844511163422
-0.7863532866983532 0.5082807192002252 0.3511398852138544
-0.8124068086927204 0.4406525083921276 0.3818645624268309
-0.8360941819763203 0.3665537070034163 0.4081481333381312
-0.856325674362126 0.2862514058683635 0.4298447069194119
-0.8719734148917937 0.2004470148062948 0.4466355986452361
-0.8820050854691134 0.1103196125950895 0.4581447503611616
-0.8856382873964933 0.01748451804363697 0.464046458370482
-0.8824794195595521 -0.07613470118015951 0.4641482320660539
-0.8726063758231161 -0.1685024432311553 0.4584376069848302
-0.8565670079067729 -0.2576958365940213 0.4470859165392548
-0.8352917699429014 -0.3421072785180292 0.4304070968869383
-0.8099471476325362 -0.4205805433766056 0.4087757631941473
-0.7817716708863053 -0.492457238120416 0.3825165659451178
-0.7519333712706761 -0.5575338554613579 0.3517843162847213
-0.7214288013547072 -0.6159505752309545 0.3164575381446397
-0.691020630266763 -0.6680431745837039 0.276059423743969
-0.6611940287740965 -0.7141833706562277 0.2297053969579033
-0.632106204761716 -0.7546135882212711 0.1760683911823956
-0.6035022099008337 -0.7892626070798426 0.1133561630893506
-0.5745706953401948 -0.8175102654564116 0.03931261794477606
-0.5436984873659586 -0.8378681256993077 -0.04867195057830701
-0.5079976372982953 -0.84763097525257 -0.1531670013146638
-0.4622895713054201 -0.8426846111099242 -0.2759909390917866
-0.3981672032922592 -0.8172290408321303 -0.4166528207549018
-0.3174359462004681 -0.7619243326096732 -0.5645402832722543
0 0 0
0 0 0
0 0 0
0 0 0
-0.4070913400506723 0.7704383820187767 -0.4906132288962838
-0.4436147228059933 0.8289733382228851 -0.3406012070227699
-0.4827160735954213 0.8517606158637913 -0.2036885994746746
-0.5163880336719459 0.8520044771676726 -0.08620771175864547
-0.545883439509218 0.8377705187074926 0.01232186893959007
-0.5733729481973519 0.8138027186496224 0.09470267891649065
-0.6003737060604788 0.7826951035255995 0.1641334456722841
-0.6277353666858474 0.7456532560640378 0.2234939174404598
-0.6558142045070852 0.7030112762166127 0.2751052065647394
-0.6845970427610343 0.6545821193622058 0.3207010103727915
-0.7137678983721739 0.5998949417665866 0.3614712244373448
-0.7427370328215893 0.5383742931804673 0.3981140797784138
-0.7706526851811316 0.4695038006796948 0.4308835341138401
-0.7964185940489448 0.3929970390033326 0.4596419806629011
-0.8187433000761856 0.3089744388581649 0.4839361576826421
-0.8362443196809851 0.2181202376538688 0.5031093317829693
-0.8476154069836959 0.121774073336956 0.5164486391760454
-0.851837266513791 0.02190833087822943 0.5233481598481476
-0.8483802164927106 -0.07903783888319738 0.5234539409427109
-0.8373304979326752 -0.1784507643547682 0.5167523216522758
-0.8193887957779543 -0.2738887166830992 0.5035741973406088
-0.7957392342731091 -0.3633818937631323 0.4845128175018337
-0.7678382053115098 -0.4456084779454119 0.4602798875110365
-0.7371929884575925 -0.5199235583877014 0.4315390957983224
-0.7051847036980363 -0.5862678271481226 0.3987537692879295
-0.6729572615612818 -0.6450066833549697 0.3620703005486117
-0.6413630600957828 -0.6967485494101819 0.3212396053405933
-0.6109396926361342 -0.7421707546334267 0.2755635370082836
-0.5818880586587615 -0.7818555807130516 0.223848471288491
-0.554026078547784 -0.8161140860905026 0.164356024451883
-0.5266968425347923 -0.8447545030894906 0.0947642631687054
-0.498617529826588 -0.8667361958777269 0.01220351199606248
-0.467698547244628 -0.8796458799871097 -0.08649389994078804
-0.4311325616762041 -0.8789066624993997 -0.2040779088404233
-0.3872912003477012 -0.8565466766992286 -0.341076702178181
-0.3451527529393528 -0.7991909261934275 -0.4921010471727096
0 0 0
0 0 0
0 0 0
-0.2899425775864615 0.7620830378013802 -0.578932418506632
-0.3688545311745757 0.8288763936554923 -0.4206070123911979
-0.4109067688484799 0.8698912913311287 -0.2728456863884108
-0.4433578310091759 0.8850468833018772 -0.1418655985095472
-0.4714703691737631 0.8813556963646585 -0.03046026061482536
-0.4974709609600701 0.8652140090038942 0.06266866541480837
-0.5228497462864591 0.8407423914760496 0.1406427174912306
-0.5485901145420404 0.8101038628155857 0.2068347593563939
-0.575263415846776 0.7741286009137004 0.2641910513921617
-0.6031121534418445 0.7328116259880507 0.3150283339439324
-0.6320987205016626 0.6856462588033699 0.3610268900360512
-0.661918753470714 0.6318455116692359 0.4032800679270143
-0.6919892185549029 0.5705120273614072 0.4423425686498546
-0.7214259191045568 0.5008056946363829 0.4782659296499331
-0.7490323527908991 0.4221394278035007 0.5106357194382928
-0.7733305278802892 0.3344083135425992 0.5386380737396749
-0.7926676367757219 0.2382228704792214 0.5611843561513736
-0.8054195871289194 0.1350794278647151 0.5771073009734168
-0.8102750768826765 0.02737661738960645 0.5854099594327685
-0.806529078061463 -0.08179398356144187 0.5855088304154571
-0.794274616779279 -0.1890749590024044 0.5773893772995551
-0.7744022784986173 -0.291366383961775 0.5616108451171407
-0.7484045686724293 -0.3862636575847391 0.5391576656410386
-0.7180727760673705 -0.4722806128864477 0.5111971351274387
-0.6851995317021872 -0.5488414200605909 0.478826374984688
-0.651363417334254 -0.6161100302847857 0.4428703299399525
-0.6178150857302044 -0.6747507066682487 0.4037524039493497
-0.5854436028751587 -0.7256910303935766 0.3614253951493478
-0.5547854883478825 -0.7699204651124916 0.315334012310067
-0.5260414371115865 -0.8083211981507505 0.2643808749923331
-0.4990742903215156 -0.8415016668820693 0.2068811189421935
-0.4733713536030441 -0.869583009185105 0.1405167311198173
-0.4479635418745671 -0.8918752081270888 0.06234804150456102
-0.4213179029349957 -0.9063837963998195 -0.03097802915467423
-0.3912693577371224 -0.9091696835999075 -0.1425439445182555
-0.3549646246030565 -0.8939570960102684 -0.2735705133476531
-0.3070394161230678 -0.8535429163916229 -0.420940954083216
-0.2214430676816526 -0.7868930736348728 -0.5759880714400267
0 0 0
0 0 0
-0.3178518999217746 0.7919608719555763 -0.5213138661185609
-0.3461019672780554 0.8655463733845774 -0.3619984858629458
-0.3736864445698551 0.9019765441145053 -0.2163255764166459
-0.3985165725209318 0.9127010483323422 -0.0903401228647143
-0.4217219340981639 0.9065902920742698 0.0156413751695233
-0.4444485601372273 0.8897327974664844 0.1041202502129593
-0.4675679752933559 0.8657257188055668 0.1786033826069814
-0.4916803548646351 0.8363156189376636 0.2425419843266291
-0.517154840656932 0.8020156948474572 0.298867355198679
-0.5441583269784088 0.7625543536570725 0.3498607907421223
-0.5726575641806056 0.7171652129024744 0.3971616441567384
-0.6023940365165293 0.6647768598700478 0.4418066900247677
-0.6328367729045525 0.6041646580809557 0.4842547725997889
-0.6631237105551957 0.5341186257149458 0.5243893955486576
-0.6920127487403254 0.4536681730256673 0.5615189617140388
-0.7178792444729196 0.3623798651591671 0.5944158676231764
-0.7388097292251585 0.2607001407113847 0.621446394015857
-0.7528353955648885 0.1502502046485815 0.6408305105000204
-0.7583027114396171 0.03392130958354975 0.6510194640557695
-0.7542896214221455 -0.08437663836262148 0.651097342886192
-0.7408929928996072 -0.2003322242646763 0.6410495870004363
-0.7192304829098274 -0.3100185331991612 0.6217684629557348
-0.691152085355993 -0.410525822440182 0.5947918493203095
-0.6588124525840623 -0.5002323668292352 0.5619018877852197
-0.6242823208320585 -0.5787203094512869 0.5247422103520405
-0.5892990695137752 -0.6464798598002219 0.4845517490866003
-0.5551648881467063 -0.7045575112880342 0.4420301576325606
-0.5227484364369323 -0.7542475400752164 0.397296766275824
-0.4925357738745034 -0.7968594834683198 0.3498906615793658
-0.4646875763921923 -0.8335478352140399 0.2987699160838286
-0.4390762517444001 -0.8651634821442694 0.2422894845388271
-0.415288613903882 -0.8920721782412877 0.1781645193904672
-0.3925899284783586 -0.9138753623266371 0.1034648258574605
-0.369860356434041 -0.9289703084499149 0.01474729659814495
-0.3455522537792566 -0.9339300690956632 -0.09147822662822838
-0.3177976235645852 -0.9228296686474027 -0.2176926115439542
-0.2850991838746517 -0.8868543587842131 -0.3636039076515119
-0.2506437020717999 -0.8142407049683975 -0.5236313674564478
0 0 0
0 0 0
-0.298816347692189 0.8319191938779108 -0.4675673697013375
-0.3115756618321597 0.8983769420104983 -0.3095795164698676
-0.329529392727869 0.9290374599972281 -0.1682253763565422
-0.3483768310450066 0.9361475886021946 -0.04755287525833521
-0.3674717523954131 0.9284965675333695 0.05346620680574588
-0.3871232787526424 0.9116413632130338 0.1380057677305011
-0.4077644351851388 0.8886632461719421 0.2097755951041265
-0.4297530610820157 0.8609322037454225 0.2722279321537145
-0.4533400592215329 0.8286957742963214 0.3282470173031846
-0.4786618804081884 0.7914687898288997 0.3800788851947364
-0.5057182311276055 0.7482704310520671 0.4293488473471416
-0.5343259695722542 0.697772676599711 0.4770839025072481
-0.5640485615360539 0.6384232552038639 0.5237031291142058
-0.5941065895341248 0.5686034060198416 0.5689705852983664
-0.6232877833664368 0.486875659322096 0.6119349895747324
-0.6498976482218572 0.3923581371083749 0.6509133114943528
-0.6718185015519919 0.2852090638284245 0.6836049230970689
-0.6867535794656858 0.1671058931260079 0.7074214737860496
-0.6926848199846547 0.04148341168581655 0.7200464337233617
-0.6884413659346732 -0.08674276324099965 0.7200862300414562
-0.6741189281197792 -0.2120560991389908 0.7075280076213195
-0.6510864389625006 -0.3295128544330848 0.6837453676351236
-0.6215715094743122 -0.4356441615206086 0.6510476350796695
-0.5880780105390045 -0.528759242281209 0.6120277095219527
-0.5529024017526962 -0.6087214495531041 0.5689966001568616
-0.5178670776565512 -0.6764667546999632 0.5236472282607472
-0.4842510605632794 -0.733507050229059 0.4769363873805431
-0.4528407577388832 -0.7815423040494703 0.4291000758698594
-0.4240261018207471 -0.8222034834523627 0.3797147571184206
-0.39789339290554 -0.8568915794204178 0.3277463485692844
-0.3742897155470288 -0.886657426753242 0.2715618095738849
-0.3528495138523858 -0.9120606080593264 0.2089082760461786
-0.3329833844673772 -0.9329423614340515 0.1368963692378513
-0.3138459821342268 -0.9480450374226467 0.05207020757107515
-0.2943485491626266 -0.95442645816741 -0.04928557147756211
-0.273430857836002 -0.9466831359619812 -0.1703719638563117
-0.2512383849894201 -0.9161391296049882 -0.3123593589353808
-0.2329428912178103 -0.8503663862284534 -0.4718205364371585
0 0 0
0 0 0
-0.2493324845680693 0.872038234128356 -0.4211681734858554
-0.2618166916074626 0.9280121452605109 -0.265038635381159
-0.277161683727747 0.9521880661208765 -0.1285273815581142
-0.2928811383839315 0.9560616994656452 -0.01290990293512308
-0.3089516687325071 0.9473767901116351 0.08382173909657162
-0.3257601439741167 0.9309115950118614 0.1651784818626049
-0.3436728768065418 0.9092284391938533 0.2349310518186656
-0.3629756693654806 0.8833683510535539 0.2964945527418772
-0.3838817745034138 0.8533642945740193 0.3527097446205539
-0.4065333959561765 0.818564868767009 0.4058104897520364
-0.4309800823604357 0.7778171324524066 0.4574458187284118
-0.4571299862345481 0.7295694551510717 0.5086851538975459
-0.4846713878970247 0.6719565092941071 0.5599715129997686
-0.5129649621968955 0.602932944359252 0.6110145760655963
-0.5409192694082832 0.5205296196750869 0.6606476057806598
-0.5668891918571953 0.4232995167878262 0.7067207109195887
-0.588678399467273 0.3109670835473018 0.7461616547040828
-0.6037602812653868 0.1851563871990317 0.7753648399597074
-0.6097983408934498 0.04986192013104797 0.7909865816589057
-0.6053762898658248 -0.08880994584820701 0.790969241618615
-0.5905815303686329 -0.2238673117475424 0.7753043806908172
-0.5670198349898469 -0.3491645292490436 0.74603796032265
-0.5372473944045058 -0.4606579320117678 0.7065122128316046
-0.5040228810814655 -0.5566984192001128 0.6603391593767814
-0.469748716482891 -0.6375768226339561 0.6105996549316622
-0.4362173067077107 -0.7047912328696835 0.5594495324859093
-0.4045952610549058 -0.7603823424551642 0.5080564614433221
-0.3755286821475156 -0.8064720623028245 0.4567067129018126
-0.3492787620797064 -0.8449971341285024 0.404949613748038
-0.3258377418909867 -0.8775719445049281 0.3517061958186427
-0.3050055768972738 -0.905405548024647 0.295317442200337
-0.2864222211326288 -0.9292047274482712 0.2335399017924662
-0.2695573353750561 -0.9489988119656394 0.1635239977290925
-0.2536667837309425 -0.963822738528314 0.08184675636444147
-0.2377540889204149 -0.9712053478436004 -0.0152697584006494
-0.2206721974590693 -0.9664631632569559 -0.1313496681988333
-0.2018350145618086 -0.9419074083626376 -0.268464263857247
-0.1842922652043784 -0.8859111965822014 -0.4256732464650921
0 0 0
-0.08100986011048328 0.8307255996964503 -0.5507561897735263
-0.1676112392610456 0.9078402493706915 -0.384359927796768
-0.2002387312285611 0.9520775227032076 -0.2311987051851698
-0.2187221417685836 0.9708095547967436 -0.09843491766396528
-0.2332399251439506 0.9723262216719674 0.01344827007315339
-0.2469054077564195 0.9631095223166041 0.1070409624569895
-0.26088581245436 0.9472587974641191 0.1861165320084681
-0.2757223731836381 0.926929367433484 0.2545174271348494
-0.291725701830893 0.9029158234364986 0.3156566658242184