# OOMMF: rectangular mesh v1.0
# Segment count: 1
# Begin: Segment
# Begin: Header
# Title: 
# Desc: time = 4.8e-10
# Desc: stepsize = 1.2750987701070326e-13
# Desc: step = 3070
# meshunit: m
# valueunit: (none)
# valuemultiplier: 384000.0000000001
# xmin: 0
# ymin: 0
# zmin: 0
# xmax: 9.357999999999999e-08
# ymax: 9.357999999999999e-08
# zmax: 2.3395e-08
# ValueRangeMaxMag: 1
# ValueRangeMinMag: 0
# meshtype: rectangular
# xbase: 1.16975e-09
# ybase: 1.16975e-09
# zbase: 1.16975e-09
# xstepsize: 2.3395e-09
# ystepsize: 2.3395e-09
# zstepsize: 2.3395e-09
# xnodes: 40
# ynodes: 40
# znodes: 10
# End: Header
# Begin: Data Text
0 0 0
0 0 0
0 0 0
0 0 0
0 0 0
0 0 0
0 0 0
0 0 0
0 0 0
0 0 0
0 0 0
0 0 0
0 0 0
0 0 0
0 0 0
0 0 0
-0.8355134680562629 0.02232452114279619 -0.5490162661090654
-0.8451551983879212 0.04121321130389455 -0.5329297907341016
-0.8554364849636991 0.02234086774603563 -0.5174256524577271
-0.8607189227549367 -0.01221229463039013 -0.5089339798750339
-0.8592402452566861 -0.05125663586170085 -0.5089979943097716
-0.8510951375197007 -0.08615099458642105 -0.5178948474565966
-0.8382948915137064 -0.1056068363084287 -0.5348914572013159
-0.8269864822146517 -0.08692766188990834 -0.5554610155830819
0 0 0
0 0 0
0 0 0
0 0 0
0 0 0
0 0 0
0 0 0
0 0 0
0 0 0
0 0 0
0 0 0
0 0 0
0 0 0
0 0 0
0 0 0
0 0 0
0 0 0
0 0 0
0 0 0
0 0 0
0 0 0
0 0 0
0 0 0
0 0 0
0 0 0
0 0 0
0 0 0
0 0 0
-0.7815627791199027 0.2323079000533267 -0.5789582557207272
-0.809367685553779 0.2621816848418764 -0.5255327903326239
-0.8461992477503807 0.2451081695635421 -0.4731477764080678
-0.8826407098176647 0.1971042887570061 -0.4267262315890165
-0.9144799190314316 0.1154730058250016 -0.3878046706964793
-0.9274979741171931 0.07500811921486794 -0.3662257364800433
-0.9355527448163352 0.03627873810705991 -0.3513188221942849
-0.9391423484442689 -0.006338313475854347 -0.3434697586991677
-0.9377612652964686 -0.05075229514176206 -0.3435520540579096
-0.9314455194130943 -0.09358164176152377 -0.3516414661135517
-0.9207264791520136 -0.1326960656574865 -0.3669530007335542
-0.9048629335771792 -0.1735238649522736 -0.388731963864725
-0.8686768353159918 -0.2547600745085379 -0.4248503974598549
-0.8282623947071861 -0.3038368512629059 -0.4708126732879645
-0.7880718293380446 -0.3224745724452536 -0.5243595540562204
-0.7580491597693164 -0.294099991370303 -0.5821225527747748
0 0 0
0 0 0
0 0 0
0 0 0
0 0 0
0 0 0
0 0 0
0 0 0
0 0 0
0 0 0
0 0 0
0 0 0
0 0 0
0 0 0
0 0 0
0 0 0
0 0 0
0 0 0
0 0 0
0 0 0
0 0 0
0 0 0
-0.7553954201412775 0.3261264481546643 -0.5683478679854491
-0.7930844759173359 0.3547083820098144 -0.4951757039586087
-0.848222177372443 0.3175617894453411 -0.4238792843461732
-0.8821406862562723 0.2964405444595081 -0.3659929142099105
-0.9121032680884088 0.2633045514109615 -0.3142265767701962
-0.9386705617893377 0.2146004977771697 -0.2698966520427391
-0.9596180173837234 0.1536461889354192 -0.2356397872562115
-0.9717056185879284 0.1003721014500179 -0.2138074649191609
-0.9785237471050354 0.04996047900690673 -0.1999880668663021
-0.9811834555838891 -0.0006148206922729211 -0.193076794265842
-0.9798233505899839 -0.0515684073449416 -0.193098164161451
-0.9744415400558212 -0.1021971762599633 -0.2000485495526735
-0.9648542790337788 -0.1527157144367601 -0.2138553969257644
-0.9497783175577853 -0.2061252332111232 -0.2354432749745933
-0.9253491820034005 -0.267223017510008 -0.2689251759848509
-0.895394739881054 -0.3165508267597296 -0.313151455163585
-0.8623004510891172 -0.3506539428484575 -0.3653487982960051
-0.8254185012060228 -0.3729483181354083 -0.4237851458779233
-0.7667486898890431 -0.4107251401324476 -0.4933571787423557
-0.7264514047935942 -0.3840793634070138 -0.5698696334059885
0 0 0
0 0 0
0 0 0
0 0 0
0 0 0
0 0 0
0 0 0
0 0 0
0 0 0
0 0 0
0 0 0
0 0 0
0 0 0
0 0 0
0 0 0
0 0 0
0 0 0
0 0 0
0 0 0
-0.7598003639751691 0.4067860451464988 -0.5071770108919276
-0.8109784544857295 0.4065629165455437 -0.4207380910375459
-0.8507679054279276 0.3966827317503139 -0.3447271115315485
-0.8887624957261681 0.3653254913265051 -0.2768366153124258
-0.9182155132098592 0.3290487964522081 -0.220470317399208
-0.9427032360431307 0.2854959392044202 -0.1726345198724609
-0.9632041154298417 0.233501182893121 -0.1330978196911156
-0.9791185162205025 0.1752888373085928 -0.1029599665363312
-0.9896570272976916 0.1172862338506108 -0.08260089387794234
-0.9957313827097254 0.06021551702935761 -0.06995073263279541
-0.9979566682554896 0.003445414800823528 -0.06380139027679843
-0.9965411549675538 -0.05328250393219434 -0.06377069256836518
-0.9914793278259767 -0.1099564836742551 -0.06984492960653471
-0.9825365906895765 -0.1668437692681219 -0.08237113943917805
-0.9690448627163429 -0.2245947078872543 -0.1025147366582112
-0.9500758111286908 -0.282552323185746 -0.1323636572874038
-0.9266129395156479 -0.3344640419616019 -0.1718204439433141
-0.8992840992425408 -0.3781740401891301 -0.2197100456887701
-0.8669688416922966 -0.414937136823659 -0.2760293463008978
-0.8258366515977164 -0.4471875058232685 -0.343536256475842
-0.7829846379348486 -0.4586270562295366 -0.4202336017648552
-0.7288707198375407 -0.4596589507696587 -0.507406269906907
0 0 0
0 0 0
0 0 0
0 0 0
0 0 0
0 0 0
0 0 0
0 0 0
0 0 0
0 0 0
0 0 0
0 0 0
0 0 0
0 0 0
0 0 0
0 0 0
-0.6554648625658164 0.4963803444952695 -0.5691857056711214
-0.7069530818811625 0.5321281528680214 -0.4658937313851661
-0.7870838320314013 0.4972439040857963 -0.3650308770560091
-0.8366777574376194 0.4704908902211631 -0.2803723460472748
-0.8733465348601315 0.4404031241923941 -0.2081127536922693
-0.9040941507217256 0.4015600951269225 -0.1461617481847345
-0.9293761949125017 0.3568025467119736 -0.09461411622907455
-0.9504564566457339 0.3064946711891502 -0.05189933095031662
-0.967900715565013 0.250734649552173 -0.01733032956075187
-0.9815772233325164 0.1908529870820491 0.009016205226465552
-0.9912079082507308 0.1294520113077321 0.02736894936954776
-0.9969450560831556 0.06775402005755028 0.03885804829625616
-0.9989947257353758 0.006053050190948052 0.04441732247993072
-0.9974630889296392 -0.05557571155330917 0.04448287882191554
-0.9923565006568384 -0.1170587347435196 0.03906185126641673
-0.983580192592031 -0.1783282453132541 0.02773160046081688
-0.9709444110986437 -0.2391139613334229 0.009563684004887954
-0.9543413464946034 -0.2982569287440177 -0.01659514468307604
-0.9341288832749947 -0.3532689718575064 -0.05103197972008416
-0.9104270115561347 -0.4029363650908574 -0.09362127064044849
-0.8825549896120263 -0.4473096464027616 -0.1449509246122688
-0.849079278190799 -0.4862058348742184 -0.2065629818753967
-0.8094429828843762 -0.5169238905219488 -0.2785529552291544
-0.7563232407230667 -0.5446229872035635 -0.3624375219974119
-0.6717377893406816 -0.5802963668513362 -0.4604611481882402
-0.6166411828198738 -0.54712863561711 -0.566042319741436
0 0 0
0 0 0
0 0 0
0 0 0
0 0 0
0 0 0
0 0 0
0 0 0
0 0 0
0 0 0
0 0 0
0 0 0
0 0 0
-0.6345799689791382 0.5425017160443348 -0.5504544949942611
-0.6978398665577925 0.5663412160218442 -0.4384941820338101
-0.749310888327359 0.5717795304035092 -0.3340678991546573
-0.8011779609525287 0.5489212110752804 -0.2383262027465621
-0.8418559424015155 0.5160899701489565 -0.1578914657443665
-0.8742463657901306 0.4769011360640938 -0.09087683050989943
-0.9013900204461448 0.4315959153569928 -0.03494276587875691
-0.9244365625755622 0.3811695587223263 0.01126096252124215
-0.9440474309692101 0.3261326681614185 0.04911141250613726
-0.9604522950878388 0.266865452370793 0.07946206133390983
-0.9735235188430866 0.2042229577587376 0.1026885669568248
-0.9830148393886902 0.1395510847748973 0.119194464132259
-0.9887987614983645 0.07388707492849636 0.129683111536585
-0.9908420319436474 0.007836379413086642 0.1347985863853089
-0.9891485839450483 -0.05822157457885413 0.1348900557234079
-0.9837395695987851 -0.1239646416839685 0.1299585580781878
-0.9746560069844625 -0.1890182016944901 0.1196569574963522
-0.9619845614917685 -0.2527967721171716 0.1033416443580609
-0.9459159746144916 -0.31431514371478 0.08030541327129172
-0.9267497275947747 -0.3723178172988629 0.05014364690387593
-0.904605551629677 -0.4260659650260037 0.0125135689244533
-0.8791746105471346 -0.4753282606669264 -0.03339234613871666
-0.8496596843652641 -0.5197776743486843 -0.08893587584879505
-0.8147314625324991 -0.5586031148474131 -0.1554837742094733
-0.7710724087543733 -0.5916932306873909 -0.2352582861802026
-0.7155757114073376 -0.6156015186487702 -0.3301305370322623
-0.6603071372615674 -0.6122996989819733 -0.4348373984698393
-0.5935195737266196 -0.5903316509512702 -0.5470311302736974
0 0 0
0 0 0
0 0 0
0 0 0
0 0 0
0 0 0
0 0 0
0 0 0
0 0 0
0 0 0
0 0 0
-0.5923757270121901 0.5877826537539435 -0.5510014065252015
-0.6610904182512837 0.6156720248684373 -0.4288442802355426
-0.714536635603036 0.6239552136653029 -0.3164131598416531
-0.7586416580241938 0.6147006742027333 -0.2158840333257812
-0.7983006384396873 0.5885555047468376 -0.1277439176594407
-0.8323005242450177 0.5517126796276854 -0.05374901375380656
-0.8614558824698202 0.507777439788101 0.007472228608933687
-0.8869243526151331 0.4582552912239899 0.05802827589583112
-0.9093243584819708 0.4039873112448095 0.09961658207618397
-0.9288841103331498 0.3454437822766585 0.1335773291280701
-0.9455408721014875 0.2830160612191407 0.1607929360312861
-0.9590252950276741 0.2173217658202584 0.1817738528992735
-0.9689919444900723 0.149247777797431 0.1969256517975162
-0.9751521264608431 0.07968275403280166 0.2067099150225825
-0.97732404848256 0.009374679389924962 0.2115415317236638
-0.9754356591185045 -0.06104516239322973 0.2116571828888224
-0.9695211702026404 -0.130985150862384 0.2070545599170925
-0.9597234912859753 -0.1998171710985275 0.1974940971473314
-0.9463001316504926 -0.2668091261656663 0.1825621840167707
-0.9296145119840498 -0.3311140954485141 0.1618033216716164
-0.9100671046593543 -0.3919185760775806 0.134824681502538
-0.887937618597394 -0.4487065694556314 0.1011395076463539
-0.8632454688534305 -0.5012188533941389 0.05989091338663235
-0.8356652650596011 -0.5491525177822266 0.00975074285924756
-0.8044225536022953 -0.5918659923714602 -0.05098041123910766
-0.7681345645822107 -0.6280852708035181 -0.12441134712625
-0.7257527285862849 -0.6544776409632367 -0.2119952698263764
-0.6783849022605829 -0.6650533850256173 -0.3122465683572309
-0.6210424332330616 -0.6589151744348732 -0.4244255989256752
-0.5484265874284784 -0.6331317429002141 -0.546234816112714
0 0 0
0 0 0
0 0 0
0 0 0
0 0 0
0 0 0
0 0 0
0 0 0
0 0 0
-0.5496942215477061 0.6110440864082334 -0.5696151220452176
-0.6149873010424801 0.655096780004074 -0.4389064004828124
-0.6678988026789558 0.6735327566488032 -0.3166461986209224
-0.7114297999550427 0.6712738261575333 -0.2079881969049039
-0.7486166580961925 0.6531585568455101 -0.1138288137528396
-0.7819650395096465 0.6224254526810808 -0.03342503312530744
-0.8121260152755083 0.5824976581446432 0.03387939740801989
-0.8395656128065446 0.5358069072486865 0.0896690578592632
-0.8646470136847509 0.4836723836174318 0.1358181396274938
-0.887476162857584 0.4267739438991026 0.1739254471559118
-0.9079159890890554 0.36549004797546 0.2051964463321371
-0.9256392895237748 0.3001583383780018 0.2304275972883406
-0.9401930693118619 0.2312780453189005 0.2500948983314302
-0.9510873664168855 0.1595699551812034 0.2645189045147073
-0.957892744141563 0.0858836534131112 0.2739808183018694
-0.960309471787593 0.01109817890531869 0.2787158926577725
-0.9582029063373788 -0.06391673440129689 0.2788581025361712
-0.9516178370735723 -0.138297964371936 0.2744032893643841
-0.9407797252679254 -0.2111780067577757 0.265211911471975
-0.9260801688617358 -0.2816903794348214 0.251049897380749
-0.9080344282748503 -0.3490188788621658 0.2316447695618483
-0.8871982497731096 -0.4125023346272215 0.2066908065846714
-0.864055631161353 -0.4717271648996864 0.175730896981889
-0.8389218472626216 -0.5264692310349618 0.1379865318026569
-0.8118733234492737 -0.5764974203778103 0.09226283633815185
-0.7826846944066747 -0.621320011728173 0.03696095463637707
-0.7508021737376326 -0.6598542219333781 -0.02980774576416803
-0.7155024807895154 -0.689947219777501 -0.1096769524802069
-0.6758349727347606 -0.7084369061235122 -0.2033820042942604
-0.6289735418203524 -0.7122165132651015 -0.3116727802078044
-0.5718621202163571 -0.6962840425967241 -0.433776725386247
-0.502421008659267 -0.6547302931779151 -0.5647135320257216
0 0 0
0 0 0
0 0 0
0 0 0
0 0 0
0 0 0
0 0 0
0 0 0
-0.5834136179817782 0.6665984082355478 -0.4639774913627226
-0.6188615456585399 0.7108869950910156 -0.3341407899607417
-0.6579043052829532 0.7213872240800679 -0.2162461514668128
-0.6935183591666263 0.7113532258159124 -0.1140564492701984
-0.7257476811793293 0.687424805131846 -0.02715585668450663
-0.7557139047358281 0.6532743684307917 0.04614210376951815
-0.7840513769808046 0.6113062452850807 0.1075551613357548
-0.8110073879064678 0.5630519287108871 0.1588695764961861
-0.8365704195966621 0.5093528853230707 0.2017661301331986
-0.8605104304139807 0.4506227579479691 0.2376150861542903
-0.8824128187249215 0.3870921888811935 0.2674084042379834
-0.901719493502226 0.3190138847946163 0.2917740501592551
-0.9177830154274355 0.2468176446055365 0.311055279499156
-0.9299427708161432 0.1711789511497798 0.3254292698729706
-0.9376161355244145 0.09299324706046852 0.3350048334060462
-0.9403822714268858 0.01330740382303583 0.3398589363096119
-0.9380420423461286 -0.06674750582070314 0.3400322003249372
-0.9306488267469467 -0.1460132458898241 0.3355188419437107
-0.9185087653110046 -0.2233598816712818 0.3262698443108772
-0.9021482478470851 -0.2977497536714147 0.3122076602119903
-0.8822473440530347 -0.3683136333789643 0.2932314638277267
-0.8595454145541301 -0.4344246323317528 0.2691782293247163
-0.8347395283274605 -0.4957252085737188 0.2397215831588622
-0.808400573610357 -0.552060379799179 0.2042494789281756
-0.7809113146065343 -0.6033277638979584 0.1617811114728263
-0.7524133154656334 -0.6492799834134465 0.11094911378036
-0.7227566965663359 -0.6892869258048723 0.05006287529682187
-0.6914453835995554 -0.7220722127908991 -0.02269363377947926
-0.6575049376788091 -0.7455105302045612 -0.1090931083162399
-0.6194163737834845 -0.7561948670611388 -0.2109328777580785
-0.5768998379422771 -0.7476265886952074 -0.329000092489563
-0.5376111251187639 -0.7061335619611978 -0.4608141391282685
0 0 0
0 0 0
0 0 0
0 0 0
0 0 0
0 0 0
0 0 0
-0.4629489780347054 0.7242367495019663 -0.5110375469644548
-0.5481582796967276 0.7519425148935416 -0.3662034334840396
-0.5954338308194049 0.7669701898429814 -0.2391971592806842
-0.6320063937249309 0.7642426317263583 -0.1284566780777731
-0.6639223451235744 0.7470319965069326 -0.03391630640972926
-0.6934610794330978 0.719030562933012 0.04589968278450176
-0.7218301917955198 0.6827595686894317 0.1131394960898439
-0.7495878280097088 0.6397338953293347 0.169878283681119
-0.7768460267250331 0.5907749772126695 0.2179338823150226
-0.803408218234871 0.5362438861370925 0.2588005592213009
-0.8288470934529361 0.4762461365660823 0.293601963686382
-0.8525510917608147 0.4108181168492478 0.3230868471570457
-0.873765014595463 0.3400934628180519 0.3476652640362795
-0.8916438165278694 0.2644381596069135 0.3674830121125642
-0.9053318473813218 0.1845299952775232 0.3825217993265216
-0.9140652066489297 0.1013669541476517 0.3926952235521544
-0.9172790413266853 0.01621550489495784 0.3979148373003926
-0.9146961288285412 -0.06948057301583729 0.3981249073839401
-0.9063769974038306 -0.1542145553851437 0.3933174411141441
-0.8927196665070737 -0.2365416496063776 0.3835357154594498
-0.8744072298043682 -0.3151999607388944 0.368864448295101
-0.8523130951111447 -0.3892104154495133 0.3493961081747725
-0.8273847428189728 -0.4579344439147155 0.3251623170462741
-0.8005324547397956 -0.52106779954681 0.2960340135587836
-0.7725425002330448 -0.5785622832783651 0.2616176020481036
-0.7440152349850041 -0.630493430380877 0.2211772238653028
-0.7153129896282442 -0.6768987641546126 0.1735954779222695
-0.6864973570647257 -0.7175964061583984 0.117374514319322
-0.6572321307363541 -0.7519823704649715 0.0506797872690261
-0.6266294128176885 -0.7787925062063887 -0.028597399681267
-0.5930514345372887 -0.7957658268162786 -0.1226651738052326
-0.5537714851199202 -0.7993802917852462 -0.2330843010016158
-0.502534113312194 -0.7861282144668287 -0.3598081368962108
-0.4127304940100956 -0.7597527012154344 -0.5024234989628097
0 0 0
0 0 0
0 0 0
0 0 0
0 0 0
-0.3876465926957147 0.721926244211918 -0.5731950951373151
-0.4623675614629569 0.7788405863227497 -0.4238202203803326
-0.5208781678997538 0.8056147008050988 -0.2822603196556441
-0.5627635452795656 0.8111325550108156 -0.1592519083276552
-0.5962112188573754 0.8009568003012103 -0.05477578442933666
-0.6258202510388018 0.7792627762709987 0.03314421379585961
-0.6538991345170662 0.7489639793420907 0.1070928546911122
-0.6815948034461874 0.7117882573437173 0.1696643764104496
-0.7093840166019838 0.6685816579726878 0.2230983720517197
-0.7373026228150009 0.6196194442514618 0.2691776118023735
-0.765068390716636 0.5648419743038977 0.3092311458937002
-0.7921479633999053 0.5040395287452359 0.3441594943389795
-0.8177956788315039 0.4370154527624923 0.3744699209967506
-0.8410891285853254 0.3637404061436075 0.4003273594373244
-0.8609837950876017 0.2844920173892886 0.421629217012202
-0.876402679399613 0.199957478768696 0.4381042686685953
-0.8863622974714715 0.1112727738742383 0.4494221260857397
-0.8901170499837319 0.01998244776627511 0.4552936844603996
-0.8872886153721579 -0.07208016057951433 0.4555473229882817
-0.8779433727411359 -0.1629748541578142 0.4501717796265746
-0.8625922661472377 -0.2508630466597053 0.4393202865832431
-0.8421112583498016 -0.334197258046114 0.4232739317214943
-0.8176058977434366 -0.4118511621004982 0.4023670168535407
-0.7902580202620625 -0.4831674003591428 0.3768839670796211
-0.7611906687513462 -0.5479212409642502 0.3469453552161686
-0.7313706824088382 -0.606217997317836 0.312404648878313
-0.7015466642143947 -0.6583531360011878 0.272769914482987
-0.6722039884708464 -0.7046591773238149 0.2271502623753936
-0.6435123199151285 -0.7453453624589808 0.1742187842293121
-0.6152397187714749 -0.7803168018805776 0.1121863501004603
-0.5866073823948669 -0.8089415919879474 0.03879793386054121
-0.5560441594947418 -0.8297326938228383 -0.04856489980718444
-0.5207148480197094 -0.839999177485919 -0.1525038651142647
-0.4755096035942483 -0.8356494605771345 -0.2749192534668763
-0.4121004588686644 -0.8108938317631464 -0.4154809326656491
-0.3322017597019224 -0.7563039084879107 -0.5636012676146632
0 0 0
0 0 0
0 0 0
0 0 0
-0.4147140837504512 0.7626048249694772 -0.4964333889579705
-0.451314595202133 0.8221537170344672 -0.3469559074636765
-0.490524710130859 0.8457243622769123 -0.2100852488927906
-0.524296413041476 0.8465003832782523 -0.09246822363175924
-0.5538611815813181 0.8325856989372588 0.006232612815006296
-0.5813760834499427 0.8087805094323123 0.08874647685860007
-0.6083486193664494 0.7777367642977718 0.1582323695536612
-0.6356208144222864 0.7407150206655783 0.2175487035896578
-0.6635431699619564 0.6981017016395131 0.2690064604518895
-0.6920998066329944 0.6497612586791668 0.3143376598154225
-0.7209773386167633 0.5952747020239904 0.3547389270031384
-0.7495968263828466 0.5341181117263761 0.3909251086878588
-0.7771285736989686 0.465823015563843 0.4231785652790243
-0.8025118843796654 0.3901408685183344 0.4514031215456505
-0.8245043072861505 0.3072107529938271 0.4751991166990426
-0.8417816994048823 0.2177060137682894 0.4939713170986239
-0.8530962948241914 0.1229180639268994 0.5070679060221605
-0.8574740953702473 0.02473328692696779 0.5139323304548602
-0.8544040912662444 -0.0745224464482666 0.5142373516216685
-0.8439568320562547 -0.1723555246075485 0.5079669662122006
-0.8267852525821342 -0.2664272565587963 0.4954217022651
-0.8040052258989502 -0.3548359408581434 0.4771446864447866
-0.7769999794819211 -0.4362865105954888 0.4537897228425362
-0.7472122667602791 -0.5101241348736389 0.4259661904686641
-0.7159755145769167 -0.5762540575343156 0.394094308131387
-0.6844053305581711 -0.6349932193897475 0.3582917175048897
-0.6533439793037609 -0.6868990326967037 0.3182944605045128
-0.6233341248396737 -0.7326025922506049 0.2734008241356478
-0.5945939750675953 -0.7726491850768498 0.2224213155554012
-0.5669688084310163 -0.8073246786776236 0.1636252836953538
-0.5398380956991802 -0.8364252788057377 0.09469732523480186
-0.5119640397372399 -0.8589120016317199 0.01276696788270086
-0.481309518764657 -0.8723855656296646 -0.08534970432019112
-0.4451196228689917 -0.8722878735990074 -0.202441070213255
-0.4017858893710102 -0.8506443390990305 -0.3390756662768938
-0.3601743216064655 -0.7939911694264529 -0.4897473643912086
0 0 0
0 0 0
0 0 0
-0.2981764828156393 0.7541673902162591 -0.5850831843679074
-0.3771972940271059 0.8218728428922901 -0.4269042415984799
-0.4193576777004775 0.8637912677795765 -0.2792915749918243
-0.4519216028118631 0.8796533289753723 -0.148246031091903
-0.4801418094115572 0.8764245209211431 -0.03665926872074806
-0.5062340462486054 0.8605326854809133 0.05666204759600317
-0.5316769997823941 0.8361554832214083 0.1347723108845596
-0.5574426086534461 0.8055147155871265 0.2010069178666018
-0.5840913131927261 0.7694949632601299 0.2582921589403895
-0.6118559953007201 0.7281424898768959 0.3089348725062274
-0.6406920599500144 0.6810018437278282 0.3546127086785031
-0.6702929912137975 0.627339747755897 0.3964242005922782
-0.7000816154516485 0.5663154437244854 0.4349397083570879
-0.7291914755430432 0.4971454108262437 0.4702406112723189
-0.7564593399947083 0.419291872596079 0.5019597518822032
-0.7804575671975095 0.3326799338228908 0.5293487011750772
-0.7995976002087082 0.2379157531174592 0.5513980161000097
-0.8123232221349842 0.1364436435663401 0.5670221467549376
-0.8173775833142632 0.03055890901964757 0.5752912648171036
-0.8140779701461819 -0.07678854261478642 0.5756566496148279
-0.8024964498082456 -0.1823918786976022 0.5680956351093717
-0.783463018035864 -0.2832758602187906 0.5531188718417035
-0.7583869677515779 -0.3771102820038806 0.5316361936056648
-0.7289749833662945 -0.4624275740287185 0.5047338035083684
-0.696950207965275 -0.5386252055406492 0.4734377420247066
-0.6638447231837652 -0.6058129829901105 0.4385211661273529
-0.6308861491764082 -0.6645908009899786 0.400376989869374
-0.5989602459573933 -0.7158242348380958 0.3589460803256012
-0.5686151668340155 -0.7604504229744391 0.3136749053467956
-0.5400740918436693 -0.7993123098149492 0.2634763873623701
-0.5132306838355896 -0.8329932544133124 0.2066797118044506
-0.4876102471398148 -0.8616036511551004 0.1409801234232969
-0.462288436365022 -0.8844569444094941 0.06344537090287605
-0.4357821933021561 -0.8995756830420263 -0.02928259688336063
-0.4059757199377869 -0.9030482279001593 -0.1403125543469898
-0.3700520356042136 -0.888628384874907 -0.2709263452301963
-0.3226716365957217 -0.8491364880442059 -0.4181509770508613
-0.237933082882296 -0.7835951908163437 -0.5739045434561603
0 0 0
0 0 0
-0.3268782792108105 0.7845206042448299 -0.5269516221585295
-0.3551471555640863 0.8592096933187783 -0.3682786999023824
-0.3828210547229823 0.8965642474488048 -0.2227567962090965
-0.4077722185390851 0.9079524996559735 -0.09666476170860512
-0.4311110521554634 0.9022486260685659 0.009522471674618343
-0.4539714796506352 0.8855881552539351 0.09820139987670462
-0.4772134853108911 0.8616273898454357 0.1728164647988515
-0.5014250415338538 0.8321696530930482 0.236783859656371
-0.5269628769396195 0.7977795383168339 0.2930152463106623
-0.5539820578237366 0.75823394285825 0.3437806968214033
-0.5824392326806672 0.7128161317331282 0.3907143490779096
-0.6120694363602004 0.6605090870057342 0.4348548620592362
-0.6423420093150773 0.6001489352667945 0.476673891216208
-0.6724063651617048 0.5305908527805612 0.5160843216332195
-0.701048060343559 0.4509262762344664 0.5524464774888612
-0.7266899727228558 0.3607661032548578 0.5846105560852966
-0.74748478749276 0.2605626977306514 0.6110430205952996
-0.7615382798012853 0.1518838571957412 0.6300720135989553
-0.767259356018463 0.0374987792332977 0.6402397380342347
-0.7637512916428882 -0.07885812699601141 0.6406757060483098
-0.7510835200239689 -0.1930625377937843 0.631348083428648
-0.730299264912266 -0.3013354859988345 0.613074146043078
-0.703151350875867 -0.4008437402139278 0.587283980449622
-0.6717022694080311 -0.4899686360057774 0.5556498870716507
-0.6379539689052113 -0.5682420625140454 0.5197265549766263
-0.6036042770630242 -0.6360774407435696 0.4806946703348542
-0.5699419713108673 -0.6944402012823639 0.4392254047538596
-0.5378417635443952 -0.7445529893422828 0.395432779937279
-0.5078086247572001 -0.7876693521698767 0.3488658657342201
-0.4800303488904617 -0.8249048320207321 0.2985010590482865
-0.4544121076485091 -0.8570876641548135 0.2427145903650718
-0.4305783056527988 -0.8845760553477339 0.1792415270148269
-0.407836404465282 -0.9069782647131863 0.1051660331603672
-0.3851123907318229 -0.9227121971403288 0.01704839444892355
-0.3609042006472444 -0.9283831135701001 -0.08861688548498778
-0.3333810632081144 -0.9181009372844903 -0.2143542293764386
-0.3010629252576562 -0.8830631241786543 -0.3599453205017906
-0.2671024863259553 -0.8114315788471547 -0.5198413745058256
0 0 0
0 0 0
-0.3084001552892051 0.8251830794463497 -0.4732464787117096
-0.321193768873326 0.8927733548883062 -0.3158960266265247
-0.3392597135481294 0.9243388561133499 -0.174643997441379
-0.3582593797419171 0.9320693979192903 -0.05382243295604444
-0.3775311485840041 0.924781668788478 0.04742464466540427
-0.3973743002544932 0.9080883535430628 0.1321711301937782
-0.4182117673317816 0.8851294172230482 0.2040706554887645
-0.4403901285907919 0.857327758516454 0.2665438971669355
-0.464148350415106 0.8249777825606448 0.3224561475429747
-0.4896108875213706 0.7876386401185611 0.3740408419046227
-0.5167661195938849 0.7443759997914052 0.4229150607089134
-0.5454215676816833 0.6939149757485779 0.4701035204500226
-0.5751359021482619 0.6347660187445139 0.5160337154753974
-0.6051336922969299 0.5653821364342918 0.5604964355355702
-0.6342212366027642 0.484399831774392 0.6025945784845733
-0.6607429000247599 0.3909971569838211 0.6407339879368337
-0.6826418286602965 0.2853518135968715 0.6727365578295131
-0.6976957152295487 0.1690897544854159 0.6961532474092109
-0.703952172881549 0.04550519434615834 0.7087881316605572
-0.7002661214028878 -0.08069960657078247 0.7093059514163662
-0.6866984048358938 -0.2042359321709177 0.6976625149784917
-0.6645312186199279 -0.3203295753943022 0.6751201542001386
-0.6358865938144972 -0.4255822754395792 0.6438384631556786
-0.6031773194172753 -0.5182812937905139 0.6062686053618648
-0.5686408742802365 -0.5982098418403706 0.5646171634152887
-0.5340740345466837 -0.6662028666492786 0.5205176904691241
-0.5007559889248335 -0.7236765207421709 0.4749060253170279
-0.4694896395360101 -0.7722533090618194 0.4280237201504332
-0.4406903560209713 -0.8135084981447362 0.3794679611724875
-0.4144743692184438 -0.8488078137566856 0.3282320712035439
-0.390721413274377 -0.8791844305143997 0.27271141221068
-0.3691010971516426 -0.9051954992129984 0.2106786374694491
-0.3490621131397557 -0.9266937521550541 0.1392635303559219
-0.3297996631151919 -0.942446360163824 0.05501854617367547
-0.3102650244356676 -0.9495471355287668 -0.04578047641787605
-0.2894297712218422 -0.9426307201550568 -0.1663662614547512
-0.2674483335957412 -0.9130360149663523 -0.3079555556102588
-0.2494551098799526 -0.848276583051629 -0.4671177440442965
0 0 0
0 0 0
-0.2593682419395668 0.8661245752835489 -0.4272661174994684
-0.271931194741572 0.9232127401257442 -0.2715357468104989
-0.2874264361486633 0.9482430768024911 -0.1349855958946084
-0.3033376460920909 0.9526907397071955 -0.019147504784317
-0.3196347653755059 0.9443377425507082 0.07784500470535458
-0.3366991024753641 0.9280184259064913 0.1594224437471763
-0.3548892911266034 0.9063500053089859 0.2293103986304542
-0.3744819105500853 0.8804213305152636 0.290897884908932
-0.395680305375474 0.850307013163778 0.3470087596912587
-0.4186165233262799 0.8153949866772626 0.3998640045062871
-0.4433298922630343 0.7745742693341454 0.4511023253226707
-0.46971873774621 0.7263428578484855 0.5017871662992203
-0.4974633122140155 0.6688967916834492 0.5523652189237195
-0.5259211726027327 0.6002649888913135 0.6025685548711261
-0.5540079005408962 0.5185602177970081 0.6512837681507099
-0.5801021511725959 0.4224086156204152 0.6964570738061105
-0.6020526701966364 0.3115682035941588 0.735158375330247
-0.6173948562840724 0.1876165114818422 0.7639526399282569
-0.6238505194772143 0.05439171565988887 0.7796486840978973
-0.620023721614026 -0.08225069431454499 0.78025983359434
-0.6059594026469118 -0.2155861080229711 0.7657256900295986
-0.5831709573436992 -0.3396517139706652 0.7379351920782896
-0.5541132928287444 -0.4504558419660303 0.7000342799814593
-0.5214696911525573 -0.5462925688393524 0.6554645607812503
-0.4876050749596338 -0.6273398216349355 0.6071952231899198
-0.4543067437333177 -0.6949735695803011 0.5573303510336066
-0.4227567664040126 -0.7511302221433452 0.5070306754452939
-0.3936268226589945 -0.7978547291083932 0.4566024044206912
-0.3672071820520659 -0.8370335937427856 0.4056274749020551
-0.3435197901604505 -0.8702532201364525 0.3530630065728422
-0.3223944673795253 -0.8987123453711028 0.2972842540072435
-0.3035021206068493 -0.9231219258735505 0.2360770483521257
-0.2863455606220029 -0.9435286111269574 0.1666132644686636
-0.2702164060788657 -0.9589975904038308 0.08547932782531252
-0.2541547474027441 -0.9670997261113403 -0.01111234124822479
-0.2370453340181251 -0.9631981326273604 -0.1267235847165024
-0.2183178386519337 -0.9396321990610278 -0.2634931722342816
-0.2010059425721666 -0.8847311745204095 -0.4205322340587114
0 0 0
-0.09126303529180221 0.8246750447717434 -0.5581954218014064
-0.1780867470628532 0.9028691486617153 -0.3912958099896291
-0.2108465434691704 0.9481122239074575 -0.2379641695389407
-0.2294957032378553 0.9676339955064404 -0.1049579579431871
-0.2442297353588739 0.9696904470548697 0.007230024692947915
-0.2581633579155386 0.960794484938538 0.101121898426909
-0.2724595483221534 0.9450966944085148 0.1804384458650256
-0.2876527689694209 0.9248026565785359 0.2489898208552042
-0.3040461988618254 0.9007501037019362 0.3101695659451874