# OOMMF: rectangular mesh v1.0
# Segment count: 1
# Begin: Segment
# Begin: Header
# Title: 
# Desc: time = 6.199999999999999e-10
# Desc: stepsize = 8.688315095078144e-14
# Desc: step = 3966
# meshunit: m
# valueunit: (none)
# valuemultiplier: 384000.0000000001
# xmin: 0
# ymin: 0
# zmin: 0
# xmax: 9.357999999999999e-08
# ymax: 9.357999999999999e-08
# zmax: 2.3395e-08
# ValueRangeMaxMag: 1
# ValueRangeMinMag: 0
# meshtype: rectangular
# xbase: 1.16975e-09
# ybase: 1.16975e-09
# zbase: 1.16975e-09
# xstepsize: 2.3395e-09
# ystepsize: 2.3395e-09
# zstepsize: 2.3395e-09
# xnodes: 40
# ynodes: 40
# znodes: 10
# End: Header
# Begin: Data Text
0 0 0
0 0 0
0 0 0
0 0 0
0 0 0
0 0 0
0 0 0
0 0 0
0 0 0
0 0 0
0 0 0
0 0 0
0 0 0
0 0 0
0 0 0
0 0 0
-0.8374522227251543 0.02092140846267573 -0.5461099425213169
-0.8469822245585489 0.03932875077465534 -0.5301644656560417
-0.857085349391209 0.02003381214620365 -0.5147847610699438
-0.8621516393179339 -0.01491019379738497 -0.5064308807155457
-0.860431706240528 -0.0543218841042375 -0.5066620291707075
-0.8520311925067718 -0.08956245715634363 -0.5157726371799941
-0.8389807732088176 -0.1093422280098445 -0.5330624160075225
-0.8274753764069245 -0.09095204621601338 -0.5540868404224542
0 0 0
0 0 0
0 0 0
0 0 0
0 0 0
0 0 0
0 0 0
0 0 0
0 0 0
0 0 0
0 0 0
0 0 0
0 0 0
0 0 0
0 0 0
0 0 0
0 0 0
0 0 0
0 0 0
0 0 0
0 0 0
0 0 0
0 0 0
0 0 0
0 0 0
0 0 0
0 0 0
0 0 0
-0.783720716669544 0.2324621395521491 -0.5759715200752662
-0.8114435968680865 0.2618383585344792 -0.5224939837947907
-0.8481306022830037 0.2443231192263471 -0.4700858377813319
-0.8843811569801824 0.1959211896709015 -0.423656531421778
-0.9159760807149422 0.1139332832723264 -0.3847168134106967
-0.9288288050156142 0.07305722873065378 -0.3632350372740252
-0.9367091736893649 0.03392754527217271 -0.3484606801319071
-0.9401029166289052 -0.009069604442048927 -0.340770081464159
-0.9385059665482267 -0.0538415999411538 -0.3410390488919927
-0.9319585720624419 -0.09700399943904052 -0.3493471683757639
-0.9209948616575518 -0.1364204673557613 -0.3649080992343439
-0.904859156794132 -0.1775084957459278 -0.3869375147279335
-0.8682654053065498 -0.2589528686295293 -0.4231531611324555
-0.82747993996725 -0.308224270768051 -0.4693343668018556
-0.7869520117391992 -0.3270329988728493 -0.5232169233385496
-0.7566804035720184 -0.2987890985845196 -0.581515125699355
0 0 0
0 0 0
0 0 0
0 0 0
0 0 0
0 0 0
0 0 0
0 0 0
0 0 0
0 0 0
0 0 0
0 0 0
0 0 0
0 0 0
0 0 0
0 0 0
0 0 0
0 0 0
0 0 0
0 0 0
0 0 0
0 0 0
-0.757300841413874 0.3270315462678254 -0.5652838254713404
-0.7948978001942297 0.3551183393885234 -0.491963872938157
-0.8498678033030237 0.3175611159108002 -0.4205706297049043
-0.883661237564762 0.2959998727120779 -0.3626663653827664
-0.9134847879853466 0.2624407159303755 -0.3109186593649816
-0.9398918225996594 0.213334376863452 -0.2666304661110058
-0.9606626674442367 0.1519901500448897 -0.2324354397854493
-0.9725917752673858 0.09831780388723926 -0.2107103417514773
-0.9792453028647211 0.04751512015327834 -0.1970303280568745
-0.9817228781803164 -0.00343497793940127 -0.1902850266939326
-0.9801601519298487 -0.05474118609076192 -0.1904979766670282
-0.9745549620880539 -0.1056943882307331 -0.1976646710114938
-0.9647212317356119 -0.1565021277201151 -0.2117074137993283
-0.9493651090201718 -0.2101587587698568 -0.2335362624678015
-0.9246024225783309 -0.2714612572882522 -0.2672436078819512
-0.8943158602446099 -0.3209649515326883 -0.3117380984136552
-0.860899226617342 -0.355206844504123 -0.3642535095604236
-0.823694283243805 -0.3775857196032679 -0.4230328026325572
-0.7645866718306178 -0.4153836142411715 -0.4928120070360706
-0.7240051389217117 -0.3887482723779115 -0.5698169351099889
0 0 0
0 0 0
0 0 0
0 0 0
0 0 0
0 0 0
0 0 0
0 0 0
0 0 0
0 0 0
0 0 0
0 0 0
0 0 0
0 0 0
0 0 0
0 0 0
0 0 0
0 0 0
0 0 0
-0.761322020737237 0.4079568212500808 -0.5039444540185946
-0.8123663492527043 0.4072835846848089 -0.4173499685493274
-0.8520358408227101 0.3969548735680162 -0.3412649327196349
-0.889902139839625 0.3651758849657346 -0.2733509731981
-0.9192433858471408 0.3284815172105992 -0.2170057382358973
-0.9436175510533542 0.2845184346904266 -0.1692193182393171
-0.9639939695808897 0.2321204309418072 -0.1297525805179533
-0.979772377417493 0.1735079678843099 -0.09970493232699276
-0.9901699322748343 0.1151051388960232 -0.07946264668746354
-0.9960895907054607 0.05764117052280292 -0.0669553787905664
-0.9981392216447643 0.000493077001217353 -0.06097418379490067
-0.9965239279823292 -0.05658958648966649 -0.06113656565098396
-0.9912373282864934 -0.1135871773011796 -0.06742782930069961
-0.9820440099112813 -0.1707594722676695 -0.08019205215130459
-0.9682740148852144 -0.2287512872869338 -0.100589664790362
-0.9490003211685905 -0.2869047183146254 -0.1307060558303128
-0.9252264633980336 -0.338970460755697 -0.1704553260037273
-0.8975855194468574 -0.3827881561255615 -0.218662897651402
-0.8649483491765728 -0.4196044898019992 -0.2753115061066728
-0.8234615694936828 -0.451852837009617 -0.3431327108472179
-0.7802841490653792 -0.4632476562311553 -0.4201883574227843
-0.7258071075264622 -0.4641842209492462 -0.5076780984893986
0 0 0
0 0 0
0 0 0
0 0 0
0 0 0
0 0 0
0 0 0
0 0 0
0 0 0
0 0 0
0 0 0
0 0 0
0 0 0
0 0 0
0 0 0
0 0 0
-0.6568542905911661 0.4981929112118912 -0.5659913993606227
-0.7082207642644518 0.533426610159157 -0.4624709727526539
-0.7881290595944894 0.4981630267689523 -0.3615054414294493
-0.8375785979469114 0.4710043756203909 -0.2767977066518641
-0.8741391140278462 0.4405089601457058 -0.2045303531458357
-0.9047935447503264 0.4012648714597006 -0.1426013475061459
-0.9299939458241603 0.3561069834515996 -0.09109927039998926
-0.9509919397052967 0.3053966771791836 -0.04844791206512469
-0.9683435951383941 0.2492305116698793 -0.01395828811921914
-0.9819119602043257 0.1889386967507149 0.01229110563941515
-0.9914167367221012 0.127126228161754 0.03052501041220084
-0.9970049504366423 0.06502269399864363 0.04187096929838631
-0.9988782614918514 0.002931514470721117 0.04726124143443137
-0.9971410700290719 -0.0590621543041628 0.04713118277985619
-0.9918003581982608 -0.1208750367935849 0.04148825084225981
-0.9827636094420791 -0.1824307883121213 0.02991145988068741
-0.9698448190634726 -0.2434529790664366 0.01147492568240746
-0.95294282090905 -0.3027801168926346 -0.01497267151794324
-0.9324260622295791 -0.3579241615264629 -0.04971853850042914
-0.9084185506609557 -0.407669754977098 -0.09263426845374577
-0.8802358265039708 -0.452064738273887 -0.1442995569925041
-0.8464365179716219 -0.4909261177944513 -0.2062444372858184
-0.8064657336921227 -0.5215555399833701 -0.278554912168285
-0.7529533580781389 -0.5491086709999971 -0.3626856876021854
-0.6678224111780128 -0.5845873869552602 -0.4607285688354971
-0.6123887303235742 -0.5512556552791711 -0.5666544321677998
0 0 0
0 0 0
0 0 0
0 0 0
0 0 0
0 0 0
0 0 0
0 0 0
0 0 0
0 0 0
0 0 0
0 0 0
0 0 0
-0.6356073269579544 0.5445971595407573 -0.5471903322770811
-0.6987180945766068 0.5679529310316754 -0.4349971177419042
-0.7500436779003714 0.5729205460973774 -0.3304489810865905
-0.8017582440632351 0.5496490516207628 -0.2346692100149338
-0.8423252499860252 0.5164282605913249 -0.1542401533278477
-0.8746385233116611 0.4768586419292292 -0.08725416412187625
-0.9017242697387824 0.4311725245459641 -0.03136232518036684
-0.9247213094975827 0.380357455084635 0.01478871605701796
-0.9442791307257218 0.3249195077876274 0.0525760091193736
-0.9606168747218217 0.2652376482339484 0.08285052781366992
-0.9735990470162978 0.2021691653808066 0.105983603534622
-0.9829738270621036 0.1370659937324316 0.1223738888530637
-0.988609010080008 0.07097497487663432 0.1327206771000172
-0.9904685258020006 0.004513303074816095 0.1376652806301058
-0.9885562803334834 -0.0619270786890983 0.1375555071171674
-0.9828962982544239 -0.1280120113088769 0.1323925671569435
-0.9735350134915661 -0.1933566073715532 0.1218310300856828
-0.960566624708394 -0.2573681327042702 0.1052302416828909
-0.9441909992271694 -0.3190579110215185 0.08188654586061993
-0.9247166001977463 -0.3771701932497871 0.05139897511272715
-0.9022677851559996 -0.4309669349069606 0.01342925487827224
-0.8765347808966665 -0.4802180546087744 -0.03282373997880938
-0.8467147684741879 -0.5245989787285341 -0.08871309015405139
-0.8114688106858094 -0.5633019051635639 -0.155593486120905
-0.7674546738183408 -0.5962179243185689 -0.23566397763689
-0.7115485325929884 -0.6199083591050266 -0.3307753196302247
-0.6559118954440564 -0.6163592441177472 -0.4357532186979047
-0.5887249443173058 -0.59409252957793 -0.5481395864542906
0 0 0
0 0 0
0 0 0
0 0 0
0 0 0
0 0 0
0 0 0
0 0 0
0 0 0
0 0 0
0 0 0
-0.5930893017102105 0.5901414507833068 -0.5477026093276059
-0.6616381509590218 0.6175397130931777 -0.4252994944134331
-0.7149345064163485 0.6253492328653901 -0.3127410885858772
-0.7589132256935409 0.6156579037951351 -0.2121698879718894
-0.798468733258171 0.5891194197652868 -0.1240402808143491
-0.832398644548498 0.5519098905678874 -0.0500796290637724
-0.8615121719930849 0.5076155751421495 0.01109979192873331
-0.8869553761338002 0.457727110119496 0.06161212063387523
-0.9093346147754752 0.4030753792350625 0.1031542390095915
-0.9288658096625619 0.3441252995825217 0.1370623428486178
-0.9454748068180512 0.2812676746684921 0.1642129253711398
-0.9588826430525491 0.2151243680631588 0.1851096516067797
-0.9687364982147014 0.1465911039071985 0.2001515557820774
-0.9747426612044389 0.07656915622704324 0.2097949206791401
-0.9767173724015783 0.005821518978510503 0.2144511234891038
-0.9745902464529455 -0.06500476248191636 0.2143553880205853
-0.9684008681762437 -0.1353032032855788 0.2095060898784521
-0.9583007392676606 -0.2044333904631889 0.1996664267792157
-0.9445582118206104 -0.2716548687494529 0.1844272668749605
-0.9275482768123082 -0.3361170660011362 0.1633386424741706
-0.9076815092575439 -0.3970070526499941 0.1360135210121091
-0.885243755726753 -0.4538121225943323 0.1019708307959638
-0.8602554873248774 -0.5062778215824887 0.06035945577228941
-0.8323871510814695 -0.5541069046250626 0.009857431780438819
-0.8008548753234604 -0.5966633939568554 -0.05122756077084214
-0.7642612518469922 -0.63267749830173 -0.124995688197362
-0.721549328128341 -0.6588192917734884 -0.2128936538852627
-0.6738428069539356 -0.6690979319728035 -0.3134387164122486
-0.6161263026763831 -0.662604598378712 -0.4258444849445805
-0.5430812331254616 -0.6364235255336078 -0.5477479989687781
0 0 0
0 0 0
0 0 0
0 0 0
0 0 0
0 0 0
0 0 0
0 0 0
0 0 0
-0.5500950252370895 0.6137025082978118 -0.566360922485282
-0.6152334155044398 0.6572317777805757 -0.4353552971104457
-0.6679925026232861 0.6751687348461511 -0.3129427997659092
-0.7113965810419977 0.6724604691126168 -0.2042347227152993
-0.7484890997715076 0.6539460663334447 -0.1100845577283726
-0.7817744555751508 0.6228527756889501 -0.02971734218846521
-0.8119023367999171 0.58258475841331 0.03754457035762018
-0.8393318916083403 0.5355537431878558 0.09329610863610888
-0.8644158023305633 0.4830624297189962 0.1394130900424616
-0.8872480587600882 0.4257793369172012 0.1774903898266116
-0.9076789664132672 0.3640772130009685 0.2087263205836523
-0.9253689007773673 0.2982938003927667 0.2339085422153848
-0.9398536473137061 0.2289343374668608 0.2535038278995654
-0.9506342537420893 0.1567311959617532 0.2678242853525777
-0.9572755168060558 0.08255014123036097 0.2771444733465657
-0.9594761515987502 0.007289284958428562 0.2816955463582025
-0.9571048064417982 -0.06816176918782849 0.2816103029137825
-0.9502143592759373 -0.1429215618051828 0.2768864362820732
-0.9390423110382977 -0.216107939298554 0.2673890361476786
-0.9239946373645647 -0.28684515710355 0.2528908182749336
-0.9056011413791527 -0.3543138060611671 0.2331272175599082
-0.8844298610322191 -0.4178550254552936 0.2078003816557726
-0.8609728291447568 -0.4770614279882434 0.1764601411092342
-0.8355480585557974 -0.5317172447132649 0.1383337034788387
-0.8082292220807652 -0.5816003901212839 0.09223074750586559
-0.7787830292596452 -0.6262273119914347 0.03655608093262334
-0.7466440100477456 -0.664520773207758 -0.03057554963013293
-0.7110777396844775 -0.6943293211770456 -0.1107936906102357
-0.6711256953297405 -0.7124864384515908 -0.2048252330420726
-0.6239433164439951 -0.715876242461675 -0.313394229914689
-0.5664615686974919 -0.6994969431510287 -0.4356894739503614
-0.4966024745706835 -0.6574598273746639 -0.566685589757451
0 0 0
0 0 0
0 0 0
0 0 0
0 0 0
0 0 0
0 0 0
0 0 0
-0.5833445494679929 0.6690544481601413 -0.4605163211039458
-0.618672283304312 0.7127805377397192 -0.3304368485664174
-0.6575885182478345 0.7227977332853547 -0.2124635908248057
-0.6931042568422119 0.7123520603653302 -0.1102770657955387
-0.7252700955916603 0.6880661797259817 -0.02341411449865242
-0.7552049602405758 0.6535912279012721 0.04983949075318558
-0.7835380751559431 0.6113092500854017 0.1112163906128169
-0.8105090665241107 0.5627310145777105 0.1625080253850709
-0.8360964489068657 0.5086810062800128 0.2053931887266024
-0.8600584100427288 0.4495609731501995 0.2412352850124097
-0.8819672336814407 0.3855955606002172 0.2710163507202296
-0.9012511352260013 0.3170380518199594 0.2953527805050222
-0.9172496088754737 0.2443258312103378 0.3145759736870686
-0.9292911691762933 0.1681488794665013 0.3288523638733911
-0.9367862503536851 0.0894229780521834 0.3382825034561513
-0.9393125653729512 0.009219120564485133 0.3429386422503334
-0.9366759264406893 -0.07130663329747802 0.3428608651833197
-0.9289408978632709 -0.1509734148251119 0.3380470918274909
-0.9164296605853067 -0.2286340153062916 0.3284557264600834
-0.8996871203696237 -0.3032408586320651 0.314019214534878
-0.8794114392997751 -0.3739227685287719 0.294647727981188
-0.8563569374594655 -0.4400578566428411 0.2701885979680729
-0.831230562779519 -0.5012984694287094 0.2403239398180643
-0.8046071474733223 -0.5575019732492257 0.2044477636416261
-0.7768674377456997 -0.6085786367161625 0.1615828799815373
-0.7481456293865313 -0.6542919893957553 0.1103635349305891
-0.718280303693693 -0.6940191783421096 0.049099749684072
-0.6867615563843469 -0.7264856968385557 -0.02402284249515612
-0.6526000723402892 -0.7495618401968588 -0.1107709045830521
-0.6142611897150829 -0.7598321554251044 -0.2129278901221025
-0.57146243614833 -0.750794838841464 -0.3312669528347725
-0.531907546034737 -0.7087937825480179 -0.4633419215790611
0 0 0
0 0 0
0 0 0
0 0 0
0 0 0
0 0 0
0 0 0
-0.4628014042681692 0.7268538951039965 -0.5074428789327506
-0.5477587768606043 0.7540489605388859 -0.362450669032904
-0.5948726156734514 0.7685874956961715 -0.2353716902716065
-0.6313290198671783 0.7654344762382063 -0.1246343903563137
-0.6631685421343768 0.7478631480711088 -0.03013629838807814
-0.6926668701544548 0.719548150458759 0.04962928733933622
-0.7210263666924999 0.6829874435663684 0.1168294931294696
-0.7487990134959425 0.6396726203026147 0.173548195676848
-0.7760893116057292 0.5904040859358914 0.2216041419322959
-0.8026912297631386 0.5355255272701354 0.2624865697581175
-0.8281657858984639 0.4751298653838189 0.2973096737200672
-0.8518876048360126 0.4092468908097403 0.3268095639502029
-0.8730862064680106 0.3380108838094724 0.3513817276149071
-0.890901208364094 0.2617968031692958 0.3711569355215306
-0.9044637043022459 0.1813000577547868 0.3861032202118622
-0.9130011731736951 0.09754394449587481 0.3961237643409461
-0.9159471466334319 0.01182531766561259 0.4011246519925956
-0.9130311768415701 -0.07438056197886528 0.4010506228832029
-0.9043286762643407 -0.1595390635526694 0.3959001546939859
-0.8902585570709257 -0.242185153711461 0.3857279519087885
-0.8715273570502644 -0.3210468878061927 0.3706331902878348
-0.8490306619629613 -0.3951455659595663 0.3507234191627772
-0.8237336484500103 -0.4638516648480304 0.3260437231859318
-0.7965578949417728 -0.5268755965147536 0.2964753375968295
-0.7682939558029769 -0.5841862137934202 0.2616311623074004
-0.7395398606819832 -0.6358756078807892 0.2207781822660679
-0.7106498890164153 -0.6819950637169099 0.1727989244952753
-0.6816730094463337 -0.7223717035990375 0.1161939328528062
-0.6522569141070963 -0.7564042447950439 0.049127756467466
-0.6214949487712141 -0.7828240358259366 -0.03050504196125089
-0.587728591758984 -0.7993591423031777 -0.1249002163542122
-0.548210128100908 -0.8024733358114907 -0.2355890505926873
-0.4966535129401232 -0.7886463561205285 -0.3624530494588877
-0.4063263405733043 -0.7616127101536634 -0.5048217355549366
0 0 0
0 0 0
0 0 0
0 0 0
0 0 0
-0.3872557181609893 0.7249215435984538 -0.5696681177479134
-0.4617882737291069 0.7812359036647486 -0.420026252835956
-0.5201110523876088 0.80746204094417 -0.2783694408848227
-0.5618543019304877 0.8125155985932276 -0.1553645565915623
-0.5952035801412804 0.8019587150030424 -0.05094033389830499
-0.6247529365473077 0.7799493285386599 0.0369162997551015
-0.6528056586208556 0.7493764707737857 0.1108137045821306
-0.680503413580716 0.7119423396602752 0.1733586141616432
-0.7083173914490034 0.6684688606472384 0.226794742698903
-0.7362767533640189 0.6192097558744358 0.2729025846078791
-0.7640905272149338 0.5640871578924594 0.3130037452191448
-0.7912138223395382 0.5028775198511639 0.3479869068904738
-0.8168863981785256 0.4353763237854021 0.378343850429769
-0.8401687438263277 0.3615543327560185 0.4042214076006369
-0.8599983053884942 0.281699168964601 0.4254979352870832
-0.8752818455385808 0.1965190195941287 0.4418845616315848
-0.8850249940284665 0.1071811142462017 0.4530374914881271
-0.8884801010630897 0.01526829426885673 0.4586610831594943
-0.885277741617274 -0.07734636986039473 0.4585857163785599
-0.8755037460695603 -0.1686881912737919 0.4528106499884279
-0.8596959004738548 -0.2568951625950259 0.4415063240132833
-0.838759445159145 -0.3404104554024472 0.4249744874801557
-0.8138265178596283 -0.4181120998868415 0.4035699081406928
-0.7860990760090214 -0.4893575886010019 0.37759421761512
-0.7567119730078333 -0.5539430933191701 0.3471801251088268
-0.7266355056786773 -0.6119964711108747 0.3121877019277479
-0.6966143851513097 -0.6638339328126996 0.2721266397225494
-0.667124181921063 -0.7098044381660602 0.2261039262284383
-0.6383201316304368 -0.7501276868419154 0.1727884920603748
-0.6099521944016857 -0.7847120177068364 0.1103873625513043
-0.5812201925233567 -0.8129207902260633 0.03664528102422501
-0.5505283528666823 -0.8332542559088274 -0.05104779818682921
-0.515013268844402 -0.8430023962853003 -0.1552684538837324
-0.4695315782061228 -0.8380532496194053 -0.2778612025267675
-0.4057213686111272 -0.8126106882623961 -0.4183945988824759
-0.3253662958694357 -0.7573026598476555 -0.5662415164043239
0 0 0
0 0 0
0 0 0
0 0 0
-0.4138512395193477 0.7654270747662332 -0.4927966566070698
-0.4503300143178264 0.8243271478887496 -0.3430563094567785
-0.4894012010246039 0.84734673335071 -0.2061309727225756
-0.5230588026050439 0.8476833065289652 -0.08855789546673627
-0.5525424873893006 0.8334239353752924 0.01006695451488293
-0.5800080390679034 0.8093407138725534 0.09251099115710766
-0.6069596434970161 0.7780559742903582 0.1619533637719706
-0.634235730543242 0.7408025927766958 0.2212612858988312
-0.6621827903180522 0.6979419776620115 0.2727470403576145
-0.6907796478823395 0.6493161583465339 0.3181383418917776
-0.7197052114484294 0.5944865447076888 0.3586225826345629
-0.7483694044358978 0.532913436986454 0.3949006244405596
-0.7759273624860753 0.4641184057555598 0.427236273722538
-0.801299477424245 0.3878515928232926 0.4555110200906953
-0.8232222889640471 0.3042625497166755 0.4793009115291785
-0.8403518861143222 0.2140491104987065 0.4979876361907123
-0.8514267401679761 0.118541051262083 0.5109016786942605
-0.8554700966488378 0.01967301603248321 0.5174783919931469
-0.8519824032125329 -0.08017877832177825 0.5173947700963196
-0.8410593376247069 -0.1784781105018935 0.5106513043809469
-0.8233879354541067 -0.2728596185460586 0.4975740510873959
-0.8001199916425877 -0.3614145003826987 0.4787353735488831
-0.7726696975286189 -0.4428583669627987 0.4548164523542161
-0.7425014430610383 -0.5165594272886401 0.4264480802295948
-0.7109596030030171 -0.5824516939622968 0.3940640393365558
-0.6791609085398822 -0.6408809305668308 0.3577877766876252
-0.6479409341493437 -0.6924294234959448 0.317354753124557
-0.617829918922282 -0.7377469231379589 0.2720582082660993
-0.5890295746013764 -0.7773899254380218 0.2207013005679574
-0.5613655324841783 -0.81164746133247 0.1615460846053247
-0.5341947978224112 -0.8403104403003359 0.09227286655202638
-0.5062542898539202 -0.8623261070607539 0.01001394457483549
-0.4754795753248058 -0.8752741343846633 -0.08839888645294154
-0.4390908917141383 -0.8745735532299717 -0.2057189558703431
-0.3954759230650181 -0.8522419222713832 -0.3424653270026746
-0.3535742181005649 -0.7948595606697649 -0.4931364426874592
0 0 0
0 0 0
0 0 0
-0.2971718906032646 0.7573381348117675 -0.5814875897171955
-0.3760026788252985 0.8244129151561013 -0.4230429420756447
-0.4180249563014737 0.8657161067567006 -0.2753012139660325
-0.450470524522252 0.8810593543914741 -0.1442592131405314
-0.4785950879023056 0.8774249425484933 -0.03274464886904257
-0.504616162253385 0.8612220655302714 0.06049035159790123
-0.5300117274867349 0.8365978754400625 0.1385336187923352
-0.5557522965676691 0.8057430595569478 0.2047376536828777
-0.5823967217684048 0.7695138107159516 0.2620354052238535
-0.6101757502976876 0.7279307977236357 0.3127336046447278
-0.6390411588539997 0.6805151507379337 0.3585045702730493
-0.6686800956768205 0.6265122141417092 0.4004364808267227
-0.6985050638546079 0.5650628780653087 0.4390838411989439
-0.727634329785694 0.4953706667480057 0.4745062535340911
-0.7548843201589273 0.4168940667679244 0.5063091943386918
-0.7788035140517188 0.3295682939478811 0.5337132433479392
-0.7977797757424788 0.2340274832109492 0.5556784740461234
-0.8102397650333466 0.1317626804290956 0.5710955429740689
-0.8149229719989137 0.02513001932362849 0.5790242066073326
-0.811161271576985 -0.08285670133819172 0.5789232751729382
-0.7990588587064248 -0.1889380826195379 0.5707953584769568
-0.7794883947681235 -0.2901094524207709 0.5551885698012287
-0.7539021861590666 -0.3840382252210933 0.5330535951230535
-0.7240414540021136 -0.4692772099061956 0.5055124856511074
-0.6916508244068142 -0.5452579238708801 0.4736168636708276
-0.6582704868134043 -0.612128487925407 0.4381537178440894
-0.6251251953543731 -0.6705242321761372 0.3995193915165545
-0.5930900835849716 -0.7213392435980542 0.3576504556107227
-0.5626977963703568 -0.7655305284572946 0.311984294412137
-0.5341530212163325 -0.8039519788026279 0.2614225807094758
-0.507328916214701 -0.8371891219457845 0.2042834914232242
-0.4817284469405393 -0.8653459066389824 0.1382539882658468
-0.4564031049418843 -0.8877207311499481 0.06039958018072687
-0.4298445512312201 -0.9023131390570051 -0.03262914129921442
-0.3999137983366411 -0.905183708869987 -0.1439145826396137
-0.3637796661297056 -0.8900627466451944 -0.274686478635137
-0.3160973749017191 -0.8497656160376064 -0.4218777635529853
-0.2308948204377926 -0.7833260118055596 -0.5771377141755643
0 0 0
0 0 0
-0.3254077353300096 0.7875404061967012 -0.5233449286989685
-0.3535930485457721 0.8615261173044144 -0.3643414678875946
-0.381164609562029 0.8982614529570178 -0.2187233470596416
-0.4060178122849701 0.909154834648692 -0.09266618985496057
-0.429271413023997 0.903075630895357 0.01343349706267626
-0.452061754032837 0.8861327502463423 0.102024112255915
-0.4752493251541514 0.8619498960367528 0.176579884649283
-0.4994223183620429 0.8322991107357217 0.240531782079642
-0.5249376260330165 0.7977167781724814 0.2967969517985931
-0.5519498955497755 0.7579540595794708 0.3476448710531931
-0.5804138328391266 0.7122699188335982 0.3947041238367962
-0.6100597283599579 0.6596240856492492 0.4390024982443332
-0.6403479181212163 0.5988313630175824 0.480994326810959
-0.6704131770801445 0.5287302583061135 0.5205674653192001
-0.699020163084351 0.4484049915355513 0.5570491676392032
-0.7245657277389232 0.3574752340842142 0.5892503400105933
-0.7451755022798559 0.25642453540114 0.6155972128317942
-0.7589347366713061 0.1468771132387829 0.6343856706139386
-0.7642478101562329 0.03167855260562689 0.644144202780879
-0.7602364389381835 -0.08535572920278225 0.644014717535904
-0.7470105125113755 -0.2000371024187181 0.6340035109156849
-0.7256654176037224 -0.3085557895877147 0.6149821350298855
-0.698003553246121 -0.4080848888589559 0.5884367112449416
-0.666123531329336 -0.4970401844299528 0.55608497198825
-0.6320459270283426 -0.5750017570808392 0.5195102746633889
-0.5974714300859293 -0.6424320197514838 0.4799051887916018
-0.5636803240217351 -0.7003380775724712 0.4379395727869843
-0.5315320798446536 -0.7499734039223208 0.3937175910537699
-0.5015130807487523 -0.7926111432783881 0.3467739975673224
-0.4737911807084713 -0.8293761193249435 0.2960695353736501
-0.4482509791284515 -0.8610966953820053 0.2399657077846206
-0.4244956805480006 -0.8881227151990055 0.1761858676047405
-0.4018106733872122 -0.9100457713799109 0.1018080387084285
-0.3790994117537987 -0.9252589815670899 0.01339600826196855
-0.3548389216936833 -0.9303366853415196 -0.09253643368434827
-0.3271840467777641 -0.9193590107342055 -0.2184710711191487
-0.2946545778069958 -0.8835128274279763 -0.3641205343668538
-0.2604356363720725 -0.8110064752561053 -0.5238719083899627
0 0 0
0 0 0
-0.3065964265366851 0.8279717233494402 -0.469533232656318
-0.319333609318004 0.8948469438529721 -0.3118893923122925
-0.3373147993435293 0.9258084675486544 -0.170579622344071
-0.3562256464109792 0.9330709993649398 -0.04981765734347745
-0.3754128266995473 0.9254351537266754 0.05133211272040056
-0.3951781044748211 0.9084825580557921 0.1359915712538487
-0.4159455639259667 0.8853200401668353 0.207840598366396
-0.4380630099741409 0.857339987689656 0.2703126796890877
-0.4617707211450562 0.8248094070470071 0.3262778618600077
-0.4871940001316789 0.787261988399042 0.3779690038319009
-0.5143206980208069 0.7437385411797235 0.4269978945513035
-0.5429552126161884 0.6929392429983833 0.4743783749347528
-0.5726489401483478 0.6333502723930282 0.5205195710121289
-0.602613363667125 0.563403902575039 0.5651841969597248
-0.631634689296434 0.4817252070018577 0.6074359589425161
-0.6580307057535564 0.3874987086389134 0.6456317379812195
-0.6797154396371098 0.2809361152346778 0.6775410100324391
-0.6944435833898293 0.1637306370886218 0.700671383722246
-0.7002579724694142 0.03927166685822604 0.7128088861505589
-0.6960366466035161 -0.08763663742053543 0.7126379209434148
-0.6818901732513418 -0.2116282130178579 0.7001709013363254
-0.6591621351706549 -0.3278998331252309 0.6767473524098253
-0.6300283813828752 -0.433074043484077 0.6446015137373053
-0.5969356735549063 -0.5254918833428492 0.606239294485548
-0.5621336419437458 -0.6050015025868216 0.5638962231321892
-0.5274141805596388 -0.6724975491278521 0.5192122191952306
-0.4940413403632901 -0.729442398121995 0.4731140896592237
-0.4627982459314458 -0.7774895419142126 0.4258260158524889
-0.4340793903026233 -0.8182315189533192 0.376924746210495
-0.4079805977703862 -0.8530401498659262 0.3253833655238633
-0.3843619752652667 -0.8829455947582977 0.2695792066667932
-0.3628738523191545 -0.9084940705757422 0.207270574447446
-0.3429455115675922 -0.9295196770001597 0.1355785608610754
-0.3237526496319106 -0.9447632089791621 0.05105585975882295
-0.3042285282388977 -0.9512855979308446 -0.05000713724008897
-0.2833325989692597 -0.9436881445964789 -0.1708078572823245
-0.2612222675926674 -0.9132923885272971 -0.3125059038991886
-0.2430663395965492 -0.8476421663176573 -0.4716158526125293
0 0 0
0 0 0
-0.2573193883657257 0.8686455973528538 -0.4233692933723368
-0.2698161278708445 0.9250286269774363 -0.2674346582120989
-0.2852245134930093 0.9494823337053203 -0.1308826760277099
-0.3010448194301786 0.9534899281425785 -0.01513187446784721
-0.3172499357228699 0.9448115352210142 0.08175353935545734
-0.3342217021387052 0.9282494441127715 0.1632446731867114
-0.3523195967608239 0.9063886489982804 0.2330890789062452
-0.3718217041331177 0.8802888662118976 0.2946864984333618
-0.392933182404615 0.849998450205884 0.3508648583329143
-0.4157875784835163 0.814880478092578 0.4038446433994448
-0.4404246217547186 0.7737989256498746 0.4552596788815282
-0.4667408625751029 0.7252256533647627 0.5061627395455945
-0.4944111811509721 0.6673299436916393 0.5569814451177106
-0.5227824288298385 0.5981162539716159 0.6074170551126594
-0.5507526121275947 0.5156816623280546 0.656310889269106
-0.5766757900683902 0.4186561115903221 0.7015497796857103
-0.5983724506577228 0.3068341973301485 0.7401372748636798
-0.6133550890986317 0.1818725421356272 0.7685817543332222
-0.6193421718525426 0.04772611426627315 0.7836692492257289
-0.6149663846245872 -0.08962359475209199 0.7834436527571569
-0.6003313453685777 -0.2233620136735695 0.7679268758258436
-0.5770183402528144 -0.347504894247954 0.7391144589883254
-0.5475352070653208 -0.4581035451526192 0.7002473412605991
-0.5145915381282284 -0.5535301678813678 0.6548281470218337
-0.4805539827648354 -0.634045365611527 0.6058501002685389
-0.4471956162290224 -0.7010934426388735 0.5554134185580291
-0.4156769744541066 -0.756658430421116 0.5046589666114459
-0.3866467638025918 -0.802813384281005 0.4538666655090033
-0.3603736853105092 -0.8414575403030879 0.4025916228671416
-0.3368603106339489 -0.8741787283168592 0.3497666108677579
-0.3159188560670471 -0.9021687107425542 0.2937463084677067
-0.2972035496784068 -0.9261244386565084 0.2323006116688492
-0.2802005788943652 -0.9460717042307293 0.1625914082638605
-0.2641846668567058 -0.9610475413965729 0.08120397141404555
-0.2481794917598081 -0.9685878598909178 -0.01563641716553249
-0.2310568290421275 -0.9640185385528443 -0.131457213873696
-0.2122435759554307 -0.9396534629248386 -0.2683356742570946
-0.1947946990555778 -0.8838379592054436 -0.4253063449884126
0 0 0
-0.08927217909006577 0.8276403885124595 -0.5541135852363266
-0.1758582493887578 0.9051057013518037 -0.3871143829701765
-0.208499307476205 0.9496782204719899 -0.2337505429792552
-0.2270525005852365 0.9686508246883716 -0.100810425098438
-0.2416908242110344 0.9702879571158579 0.01126169472705304
-0.2555222386938299 0.9610805457164208 0.1050360422822555
-0.2697079377774393 0.9451476330379729 0.1842649724243799
-0.2847828190967638 0.9246636899641842 0.2527761982646275
-0.3010515769574676 0.9004385639132203 0.3139718787237461